/*--------------------------------*- C++ -*----------------------------------*\
| =========                 |                                                 |
| \\      /  F ield         | OpenFOAM: The Open Source CFD Toolbox           |
|  \\    /   O peration     | Version:  2112                                  |
|   \\  /    A nd           | Website:  www.openfoam.com                      |
|    \\/     M anipulation  |                                                 |
\*---------------------------------------------------------------------------*/
FoamFile
{
    version     2.0;
    format      ascii;
    arch        "LSB;label=32;scalar=64";
    class       volVectorField;
    location    "160";
    object      force;
}
// * * * * * * * * * * * * * * * * * * * * * * * * * * * * * * * * * * * * * //

dimensions      [1 1 -2 0 0 0 0];

internalField   uniform (0 0 0);

boundaryField
{
    outlet
    {
        type            calculated;
        value           uniform (0 0 0);
    }
    walls
    {
        type            calculated;
        value           uniform (0 0 0);
    }
    inlet
    {
        type            calculated;
        value           uniform (0 0 0);
    }
    hole
    {
        type            calculated;
        value           nonuniform List<vector> 
1600
(
(0.00060080032 0.00063634368 2.4101991e-06)
(0.00052500849 0.00065089879 1.7414795e-06)
(0.00047019784 0.00068272628 1.3204335e-06)
(0.00039336141 0.00066869546 1.3364707e-06)
(0.00027809322 0.00057397962 1.9819132e-06)
(0.00019653138 0.00052553281 1.9745621e-06)
(0.00014880914 0.00052874029 1.6060865e-06)
(0.00011013744 0.00054448819 1.2860624e-06)
(6.3747136e-05 0.00053398878 1.0911794e-06)
(1.830247e-05 0.00051953922 1.1160409e-06)
(0.00063369992 0.00066823261 5.3376475e-06)
(0.00054504459 0.00067412031 4.6601917e-06)
(0.0004800941 0.00069617402 4.3503067e-06)
(0.00039352225 0.00066996643 4.8735514e-06)
(0.00028326247 0.00058754111 6.3829243e-06)
(0.00020434279 0.00054659634 6.166549e-06)
(0.00015526066 0.00054918485 4.85991e-06)
(0.00011387522 0.00056154879 3.9518305e-06)
(6.580668e-05 0.00054654947 3.5422117e-06)
(1.9050275e-05 0.00053166257 3.3239366e-06)
(0.00066115599 0.00069619211 5.5924322e-06)
(0.00056644748 0.00070054615 5.5561012e-06)
(0.00049555047 0.00071911847 6.0806111e-06)
(0.00040264839 0.00068819685 7.4924799e-06)
(0.00029771712 0.00062122805 9.3052634e-06)
(0.00022060274 0.00058749088 8.8857209e-06)
(0.00016815149 0.00058843953 7.2531934e-06)
(0.00012101612 0.00059323102 6.3290014e-06)
(6.942902e-05 0.00057192314 6.0317955e-06)
(2.0346218e-05 0.00055628734 5.3658692e-06)
(0.00067748424 0.00071316498 6.5764253e-06)
(0.00058191389 0.00071994229 6.533631e-06)
(0.00050762358 0.0007379086 7.0300562e-06)
(0.00041266908 0.0007089695 8.8151438e-06)
(0.00031457516 0.00065952601 1.0350368e-05)
(0.00023945533 0.00063502278 9.8615839e-06)
(0.00018318488 0.00063506422 8.4596764e-06)
(0.00012988824 0.00063245162 8.1163069e-06)
(7.4002281e-05 0.00060545012 8.0329139e-06)
(2.2024645e-05 0.00058761511 6.7809578e-06)
(0.00070247301 0.00073864937 8.3032969e-06)
(0.00060137494 0.00074364204 8.0844427e-06)
(0.00052146931 0.00075919219 8.2448104e-06)
(0.00042595132 0.00073560235 9.9016953e-06)
(0.00033310107 0.00070078307 1.0799223e-05)
(0.00025852386 0.00068394553 9.8141253e-06)
(0.00019802877 0.00068199117 8.6608633e-06)
(0.00013879079 0.00067274251 9.33845e-06)
(7.8782648e-05 0.00064168659 9.3622771e-06)
(2.3834793e-05 0.00062183723 7.8073847e-06)
(0.00072794213 0.00076462751 9.319202e-06)
(0.00062209429 0.00076902902 9.3874288e-06)
(0.000535736 0.00078129613 9.370653e-06)
(0.00044126547 0.00076565034 1.0443318e-05)
(0.00035192557 0.00074291918 1.0657219e-05)
(0.0002765299 0.00073029234 9.2639052e-06)
(0.00021102933 0.00072452654 8.6197599e-06)
(0.00014677445 0.00071075013 1.0175164e-05)
(8.3442741e-05 0.00067753441 1.020695e-05)
(2.5644419e-05 0.00065553076 8.6952842e-06)
(0.00074516629 0.00078295176 9.3477786e-06)
(0.00063935494 0.00079124188 1.0092122e-05)
(0.00054956312 0.00080304469 1.0320374e-05)
(0.00045565759 0.00079325239 1.0773671e-05)
(0.00036820217 0.00077932902 1.0295704e-05)
(0.0002911939 0.00076870384 8.8490679e-06)
(0.0002215883 0.00076124503 8.8391539e-06)
(0.00015392998 0.00074626748 1.0812465e-05)
(8.7921856e-05 0.00071184397 1.0776303e-05)
(2.7416784e-05 0.00068883314 9.5817742e-06)
(0.00075292547 0.00079238234 9.0889395e-06)
(0.00065300857 0.00080994732 1.0207846e-05)
(0.0005617527 0.00082246113 1.0572326e-05)
(0.00046869603 0.0008178689 1.0914968e-05)
(0.00038170225 0.00080929539 1.0176323e-05)
(0.00030290214 0.00080059006 8.8989497e-06)
(0.0002310559 0.00079562948 9.3972443e-06)
(0.00016080994 0.00078020091 1.1241774e-05)
(9.2182991e-05 0.0007441832 1.1240182e-05)
(2.9084862e-05 0.00072196045 1.0414317e-05)
(0.00075467886 0.0007957272 9.6204075e-06)
(0.00066270777 0.00082393375 1.0222903e-05)
(0.00057128116 0.00083805414 1.0562867e-05)
(0.00047978839 0.00083862823 1.0852427e-05)
(0.00039279983 0.00083390088 1.0260847e-05)
(0.00031323376 0.00082958095 9.3549401e-06)
(0.00024019144 0.00082886035 9.964518e-06)
(0.00016731575 0.00081153402 1.147197e-05)
(9.6133551e-05 0.00077431888 1.1637303e-05)
(3.0607891e-05 0.00075540666 1.1171397e-05)
(0.00075937281 0.00080208597 1.1058692e-05)
(0.00067144216 0.00083613958 1.0517299e-05)
(0.0005797255 0.00085155182 1.0686328e-05)
(0.00048967935 0.00085706735 1.0710541e-05)
(0.00040268951 0.00085600414 1.0389684e-05)
(0.0003232919 0.00085797307 9.8125256e-06)
(0.00024879621 0.00085964453 1.0341675e-05)
(0.0001731101 0.00083897511 1.1608248e-05)
(9.9600098e-05 0.00080255177 1.2028924e-05)
(3.1944438e-05 0.00078912815 1.1671345e-05)
(0.00077081056 0.00081578475 1.0900233e-05)
(0.0006795181 0.00084606793 1.0244926e-05)
(0.00058738374 0.00086326616 1.0480419e-05)
(0.00049793033 0.00087249085 1.061868e-05)
(0.00041198675 0.00087721175 1.0448763e-05)
(0.00033304136 0.00088537436 1.0095857e-05)
(0.00025650539 0.00088677575 1.0537927e-05)
(0.00017803448 0.00086226789 1.161362e-05)
(0.00010266838 0.00082956601 1.2398863e-05)
(3.3171331e-05 0.00082299191 1.1943252e-05)
(0.00077339018 0.00082045012 9.2269026e-06)
(0.00068335583 0.00085141532 9.6615321e-06)
(0.00059261701 0.00087170301 1.0170926e-05)
(0.00050478139 0.00088572952 1.0454985e-05)
(0.00042020184 0.00089612952 1.0434137e-05)
(0.00034158959 0.00090940045 1.0187185e-05)
(0.0002627282 0.00090826577 1.0565409e-05)
(0.00018184147 0.00088092596 1.1619991e-05)
(0.00010538731 0.00085569445 1.2665435e-05)
(3.4273864e-05 0.00085523099 1.1672758e-05)
(0.00077087457 0.0008213333 7.1682077e-06)
(0.00068194663 0.00085067743 9.7240972e-06)
(0.00059555369 0.00087727831 1.010879e-05)
(0.00051027117 0.00089681813 1.021233e-05)
(0.00042730184 0.0009126033 1.0339587e-05)
(0.00034834195 0.00092810383 9.972183e-06)
(0.00026725481 0.00092335638 1.0349411e-05)
(0.00018482562 0.00089629486 1.1565105e-05)
(0.00010781411 0.00087992566 1.2697798e-05)
(3.5250544e-05 0.00088483725 1.0911406e-05)
(0.00076180125 0.00081699122 6.0552712e-06)
(0.0006843376 0.00085504231 9.3531607e-06)
(0.00059849042 0.00088209686 1.0011092e-05)
(0.00051458604 0.00090517506 9.8638652e-06)
(0.00043279072 0.00092504448 9.9006745e-06)
(0.00035269719 0.00093943492 9.3981312e-06)
(0.00026975691 0.0009314064 9.9055069e-06)
(0.00018684471 0.00090799545 1.1353676e-05)
(0.0001098425 0.0009010493 1.2247576e-05)
(3.6081764e-05 0.0009087995 9.4911937e-06)
(0.00075053759 0.00080794834 5.9955762e-06)
(0.00068567186 0.00085813655 8.1401487e-06)
(0.00059964622 0.00088388516 9.3150394e-06)
(0.00051670167 0.00090907798 8.9342008e-06)
(0.00043516391 0.00093023759 8.7785028e-06)
(0.00035385646 0.00094189516 8.2582404e-06)
(0.00027005116 0.00093241033 9.0615912e-06)
(0.00018786165 0.00091614041 1.0818474e-05)
(0.00011121362 0.00091672307 1.0930441e-05)
(3.6726277e-05 0.0009275355 7.1109614e-06)
(0.0007477914 0.00080416392 5.8593204e-06)
(0.0006829445 0.00085477637 6.3790757e-06)
(0.00059687118 0.00087945297 7.3921198e-06)
(0.0005132521 0.00090236282 6.8460318e-06)
(0.00043136658 0.00092160318 6.5371571e-06)
(0.00035008842 0.00093127941 6.3126243e-06)
(0.00026725348 0.00092385432 7.5830243e-06)
(0.00018759159 0.0009179565 9.6828166e-06)
(0.00011121759 0.00092082193 8.9280961e-06)
(3.6717155e-05 0.00093350136 4.1407153e-06)
(0.00074618161 0.00079871961 4.147234e-06)
(0.00067386068 0.00084201002 3.8272227e-06)
(0.00058655718 0.00086304226 4.1787602e-06)
(0.00050117176 0.00087991035 3.8185852e-06)
(0.00041951898 0.00089566171 3.4487438e-06)
(0.00034038095 0.00090608449 3.5094145e-06)
(0.00026054277 0.00090432629 5.1445536e-06)
(0.00018543176 0.00091404243 7.0812074e-06)
(0.00011110671 0.00092473314 5.4072355e-06)
(3.66991e-05 0.00093429127 3.8723742e-07)
(0.00074039516 0.00078738929 1.4925421e-06)
(0.00066204316 0.00082408483 -7.5169655e-08)
(0.00057429886 0.00084231997 -6.8367679e-07)
(0.00048931039 0.00085678744 -1.3918771e-06)
(0.00040708531 0.00086644155 -1.6398255e-06)
(0.00032666976 0.00086891622 -1.3821101e-07)
(0.00024882406 0.00086879183 3.0467281e-06)
(0.0001782468 0.00088874052 4.9911588e-06)
(0.00010774731 0.00090934915 2.6242723e-06)
(3.5356466e-05 0.00091446824 -2.7163704e-06)
(0.0007625217 0.0008029747 -6.4158891e-06)
(0.00067327818 0.00083137511 -8.7349031e-06)
(0.0005787467 0.00084255541 -1.0239975e-05)
(0.00048654824 0.00084585262 -1.1816182e-05)
(0.00039873622 0.00084506857 -1.2241813e-05)
(0.00031724477 0.00084669346 -1.0574286e-05)
(0.00024246219 0.00085943562 -5.9400194e-06)
(0.00017638877 0.00089627442 -1.8500447e-06)
(0.00010774921 0.00091705122 -2.4552163e-06)
(3.5034291e-05 0.00089822449 -4.8008564e-06)
(0.00071314535 0.00073804386 -5.6136829e-06)
(0.00060858784 0.00073779368 -6.5518957e-06)
(0.00050563116 0.00072233205 -7.2060855e-06)
(0.00040706821 0.00069660823 -7.9128999e-06)
(0.00032394599 0.00068259047 -8.3184026e-06)
(0.0002561913 0.00069327669 -8.0153444e-06)
(0.00020327034 0.00074499223 -5.7635482e-06)
(0.00015274707 0.00082034316 -4.0115698e-06)
(9.552827e-05 0.00086464652 -3.5093256e-06)
(2.9783357e-05 0.00085355882 -3.6283048e-06)
(0.001949014 3.7285172e-05 1.6283674e-05)
(0.0017335667 0.00016924204 1.7200632e-05)
(0.0014908928 0.00026600953 1.8361266e-05)
(0.0012703187 0.00033521134 1.8573806e-05)
(0.001087762 0.00038594668 1.7653122e-05)
(0.00095143394 0.00043059961 1.5878437e-05)
(0.00085838492 0.00047758388 1.2538356e-05)
(0.00078296727 0.00052081126 8.6760929e-06)
(0.00071143093 0.0005571403 5.9073062e-06)
(0.00066212554 0.00060385072 3.7263873e-06)
(0.0021368663 5.0837619e-05 1.802061e-05)
(0.0019405467 0.00019732087 1.8959741e-05)
(0.0017192586 0.00031254448 1.94494e-05)
(0.0014979149 0.00039760049 1.8924926e-05)
(0.0013025111 0.00046147979 1.7819941e-05)
(0.0011421444 0.00051289323 1.6050249e-05)
(0.0010125795 0.00055632064 1.3633354e-05)
(0.00089889081 0.00059079341 1.1507463e-05)
(0.0008002198 0.00062100261 9.7303623e-06)
(0.00072079972 0.00065270784 6.9723332e-06)
(0.0021601159 5.3837358e-05 2.8332758e-06)
(0.0019749874 0.00020181999 2.8723798e-06)
(0.0017610532 0.00032027908 2.7080678e-06)
(0.0015412949 0.00040851565 2.6375094e-06)
(0.0013461579 0.00047579349 3.0211051e-06)
(0.0011857981 0.00053071029 4.0411113e-06)
(0.0010548876 0.00057805834 5.3408059e-06)
(0.00094376268 0.00061938641 6.4005992e-06)
(0.00084775024 0.00065598621 7.0241685e-06)
(0.00075762519 0.00068407127 6.1797204e-06)
(0.0021094762 4.7021303e-05 -4.431813e-06)
(0.0019197421 0.00019175479 -4.151141e-06)
(0.0016978226 0.00030559338 -3.3111208e-06)
(0.0014832619 0.0003919689 -1.9544248e-06)
(0.00129682 0.0004594933 -6.4531853e-07)
(0.0011586147 0.00052203023 1.6495464e-06)
(0.0010477172 0.00057796242 4.1065147e-06)
(0.0009514237 0.00062679505 5.9875514e-06)
(0.00086652797 0.00067137009 7.3555804e-06)
(0.00077695211 0.00070125758 7.108544e-06)
(0.002135181 4.7151765e-05 4.0831202e-06)
(0.0019493326 0.00019525923 6.2055203e-06)
(0.0017359607 0.00031348457 8.1148722e-06)
(0.0015288825 0.00040508403 9.602075e-06)
(0.0013459845 0.00047830147 1.0600702e-05)
(0.0012188562 0.0005515397 1.0607137e-05)
(0.0011132933 0.00061616961 9.9604925e-06)
(0.001004686 0.00066251513 9.268602e-06)
(0.00091066934 0.00070508119 9.429274e-06)
(0.00081177518 0.00073171547 9.0581876e-06)
(0.0021776067 5.3194504e-05 9.4125091e-06)
(0.0020202265 0.00020769273 1.1777459e-05)
(0.0018352659 0.00033719629 1.3988387e-05)
(0.0016465662 0.00044150503 1.529693e-05)
(0.0014712922 0.00052579691 1.6407507e-05)
(0.0013251758 0.00059881042 1.4469283e-05)
(0.0011905446 0.00065615434 1.1534422e-05)
(0.0010641213 0.00069929734 1.0112326e-05)
(0.00095607842 0.00073805574 1.0003683e-05)
(0.0008461434 0.00076108535 9.701323e-06)
(0.002239839 6.0166003e-05 1.1085993e-05)
(0.0020975496 0.00021999145 1.3092671e-05)
(0.0019212146 0.00035601869 1.471105e-05)
(0.0017330107 0.00046655967 1.4916743e-05)
(0.0015534716 0.00055452292 1.4128097e-05)
(0.001376438 0.00061890884 1.1411646e-05)
(0.0012199092 0.00066970513 8.4045648e-06)
(0.0010939527 0.00071709532 7.8960528e-06)
(0.00098430408 0.00075778381 8.8895443e-06)
(0.00086723678 0.00077850658 8.95887e-06)
(0.0022649844 6.4135812e-05 1.0181891e-05)
(0.0021431449 0.00022813403 1.2691848e-05)
(0.0019787978 0.00036887472 1.3957486e-05)
(0.0017901164 0.00048197243 1.3247029e-05)
(0.0015864858 0.00056412335 1.0594074e-05)
(0.001387979 0.00062028131 7.490405e-06)
(0.0012217815 0.00066766636 5.2313674e-06)
(0.0011036532 0.00072189409 5.6176988e-06)
(0.00099539677 0.00076457822 7.7983754e-06)
(0.00087473875 0.00078419649 8.4400159e-06)
(0.002320022 6.8858203e-05 1.1865829e-05)
(0.0022118062 0.00023806764 1.2887593e-05)
(0.0020451592 0.00038192498 1.2117772e-05)
(0.0018317965 0.00049073104 9.1985889e-06)
(0.0015976452 0.00056331396 5.4380481e-06)
(0.0013817993 0.0006126076 2.8458458e-06)
(0.0012134997 0.0006591447 1.6502704e-06)
(0.0010946665 0.00071396344 2.7982423e-06)
(0.00099423914 0.00076338651 6.4303003e-06)
(0.00087455174 0.00078366842 8.7836138e-06)
(0.0023491344 7.2124106e-05 9.8419031e-06)
(0.0022289803 0.00023978367 7.6636725e-06)
(0.0020403422 0.00037783906 4.3455962e-06)
(0.0018018511 0.00047594268 4.4828065e-07)
(0.0015503249 0.00053794574 -1.7752485e-06)
(0.0013331072 0.00058383419 -1.9612965e-06)
(0.0011677318 0.00062970047 -1.360958e-06)
(0.0010605948 0.00069131175 1.5304466e-07)
(0.00098339036 0.00075825459 4.157455e-06)
(0.00087719408 0.00078765831 9.2023217e-06)
(0.0022886119 6.7663277e-05 2.4253342e-06)
(0.0021523837 0.00022530974 1.1439688e-06)
(0.0019681905 0.00035544544 3.1290833e-07)
(0.0017517645 0.00045423267 1.365032e-06)
(0.0015175076 0.00052013917 7.8642716e-07)
(0.0012905622 0.00055960488 -8.0774796e-07)
(0.0011154829 0.00059746433 -2.2750643e-06)
(0.0010097099 0.00065765485 -2.7786665e-06)
(0.00095627079 0.00074160014 -7.3589014e-09)
(0.00087549644 0.0007907756 7.9709154e-06)
(0.002213859 6.3393578e-05 1.4631442e-06)
(0.0021375578 0.00022105181 4.4503397e-06)
(0.0019976739 0.000358035 4.9745784e-06)
(0.0017864324 0.00045938769 4.436249e-06)
(0.0015226623 0.00051600141 3.688921e-06)
(0.0012776898 0.00054789816 2.2925151e-06)
(0.0010758715 0.00057085839 3.0587836e-07)
(0.00094588325 0.00061304807 -2.0715518e-06)
(0.0009013474 0.00070242022 -2.5525111e-06)
(0.00086029707 0.00078546626 4.6592909e-06)
(0.0022468133 6.0236406e-05 2.673521e-06)
(0.0021603436 0.00021978417 2.3364507e-06)
(0.0019998196 0.00035641418 1.6105829e-06)
(0.0017864748 0.00045928675 2.1018142e-06)
(0.001535663 0.00052084092 3.4389658e-06)
(0.0012923381 0.00055281227 4.1414579e-06)
(0.0010655376 0.00056050408 2.6707258e-06)
(0.00089327938 0.00057440957 2.3160373e-07)
(0.00083206556 0.00065040535 -8.3090126e-07)
(0.00083152452 0.00076826782 2.6951354e-06)
(0.0022254585 5.6657946e-05 -5.8297421e-07)
(0.00213168 0.00021494256 -7.7655212e-07)
(0.0019671386 0.00034965286 -2.4267968e-07)
(0.0017533171 0.00045114717 5.2728939e-07)
(0.00152327 0.00051806978 2.1955529e-06)
(0.0012927956 0.00055261993 4.0797478e-06)
(0.0010563466 0.00055220738 4.279636e-06)
(0.00085812431 0.00054861703 2.7839763e-06)
(0.00078508911 0.00061579706 3.0959665e-06)
(0.00080892146 0.00075320811 4.1208373e-06)
(0.0022005791 5.5038518e-05 4.7198452e-07)
(0.0020888719 0.00020911528 3.9725355e-07)
(0.0019128978 0.00033899822 7.7153977e-07)
(0.0016961515 0.00043590518 1.5985632e-06)
(0.0014828116 0.00050547794 2.9897783e-06)
(0.0012754174 0.00054674055 4.8990624e-06)
(0.0010520307 0.00054943182 6.8434243e-06)
(0.0008352275 0.00053214066 7.5185395e-06)
(0.00077157277 0.00060560846 8.6996263e-06)
(0.00080159202 0.00074711426 7.1064929e-06)
(0.0021875899 5.4958388e-05 3.2786737e-07)
(0.0020600812 0.00020774215 2.4010755e-06)
(0.0018784912 0.0003350338 4.648725e-06)
(0.0016709343 0.00043192268 6.7467032e-06)
(0.0014591509 0.00049920948 7.9411115e-06)
(0.001263417 0.00054371497 9.4570809e-06)
(0.0010559527 0.00055410038 1.1387573e-05)
(0.00085395276 0.00054600919 1.3467309e-05)
(0.00079787942 0.00062358715 1.4319818e-05)
(0.0008044573 0.00074525358 9.240104e-06)
(0.0022050964 5.5271595e-05 2.0482393e-06)
(0.0020874288 0.00021294056 4.4901366e-06)
(0.0019169495 0.00034623156 7.0318058e-06)
(0.0017224883 0.00045084513 9.3550446e-06)
(0.0015204082 0.00052630638 1.1428602e-05)
(0.0013271931 0.00057684996 1.3497698e-05)
(0.0011181301 0.00059127433 1.5441011e-05)
(0.00092209712 0.0005917193 1.6535216e-05)
(0.00086055494 0.00066815066 1.4131711e-05)
(0.00081910729 0.00075111981 7.9951624e-06)
(0.0022596929 5.9074953e-05 3.0587654e-06)
(0.0021639527 0.00022368856 4.3044432e-06)
(0.0020134761 0.00036691956 5.6426294e-06)
(0.0018286446 0.00048219557 7.0326055e-06)
(0.0016264482 0.00056684194 8.7039292e-06)
(0.0014218053 0.00062223782 1.0486379e-05)
(0.0012092884 0.00064450045 1.3159446e-05)
(0.0010189582 0.00065411046 1.3736108e-05)
(0.00090412382 0.00069492927 9.1977234e-06)
(0.0008207996 0.00074508136 4.1723116e-06)
(0.0022768799 6.1373499e-05 1.0151323e-06)
(0.0021934756 0.0002282217 1.2373408e-06)
(0.0020595863 0.00037626665 1.4850715e-06)
(0.001885488 0.00049768225 1.5409567e-06)
(0.0016951918 0.00059169779 1.8008905e-06)
(0.0014967137 0.00065681009 2.1355083e-06)
(0.0012983274 0.00069422553 2.6361843e-06)
(0.0011075804 0.00070911825 2.367084e-06)
(0.00095663488 0.00072795296 -6.8468772e-07)
(0.00085390795 0.00076690902 -3.9984403e-06)
(0.0022762601 6.1525046e-05 -1.4027995e-07)
(0.0021955459 0.00022774028 -2.8196677e-07)
(0.002067688 0.00037645269 -3.9649288e-07)
(0.0019019988 0.0004997632 -5.7091552e-07)
(0.001710271 0.00059328778 -9.5272807e-07)
(0.0015086932 0.00065706118 -1.4791015e-06)
(0.0013026177 0.00069008999 -1.9306775e-06)
(0.0011111655 0.00070388158 -2.2905506e-06)
(0.00095070518 0.00071390058 -2.9999169e-06)
(0.00082564085 0.00072979053 -4.3338127e-06)
(-0.00015426785 0.00023582857 7.0847121e-08)
(-0.00025378391 0.00039523584 9.540105e-08)
(-0.00030752594 0.00053619057 1.2544146e-07)
(-0.00031892895 0.00064548375 1.67104e-07)
(-0.00029365683 0.00070760263 2.2696096e-07)
(-0.00024106771 0.00070956818 3.0601522e-07)
(-0.00017688276 0.0006601479 4.2412938e-07)
(-0.00011896459 0.00060150262 5.2961216e-07)
(-6.9208425e-05 0.00055718826 7.3823916e-07)
(-2.4804762e-05 0.00053442394 1.0242897e-06)
(-0.00015520912 0.00023691789 2.0510126e-07)
(-0.00025509981 0.00039702218 2.7518188e-07)
(-0.00030906857 0.00053866192 3.6332694e-07)
(-0.00032077592 0.00064907065 4.8792871e-07)
(-0.00029573658 0.00071258211 6.4659668e-07)
(-0.00024330468 0.00071645981 8.6935617e-07)
(-0.00017904225 0.00066890414 1.1498114e-06)
(-0.00012063153 0.00061145224 1.4493137e-06)
(-7.0087203e-05 0.00056740469 1.9267913e-06)
(-2.4970903e-05 0.00054605631 2.7095442e-06)
(-0.00015713047 0.00023914966 3.2300487e-07)
(-0.00025757645 0.00040038908 4.3472517e-07)
(-0.00031205844 0.00054349448 5.794969e-07)
(-0.00032429422 0.00065586311 7.7640672e-07)
(-0.00029959233 0.00072179878 1.0210542e-06)
(-0.00024742842 0.00072889583 1.3586395e-06)
(-0.00018283063 0.00068412168 1.7563308e-06)
(-0.00012371193 0.00062925595 2.1861871e-06)
(-7.19094e-05 0.00058647942 2.8196401e-06)
(-2.526365e-05 0.00056728126 3.976492e-06)
(-0.00015986138 0.00024234618 4.2535963e-07)
(-0.00026117079 0.00040529651 5.7740732e-07)
(-0.00031633984 0.00055041687 7.7402939e-07)
(-0.00032929419 0.00066555006 1.0249561e-06)
(-0.0003050639 0.00073487634 1.3498429e-06)
(-0.00025318495 0.00074632518 1.7589443e-06)
(-0.00018813733 0.00070537507 2.253086e-06)
(-0.00012787502 0.00065329147 2.7199304e-06)
(-7.4448979e-05 0.00061231628 3.4608832e-06)
(-2.587104e-05 0.00059542773 4.910671e-06)
(-0.0001632875 0.00024637006 5.211573e-07)
(-0.00026574583 0.00041155196 7.062026e-07)
(-0.00032169088 0.00055903831 9.4679891e-07)
(-0.00033547312 0.0006775222 1.2418335e-06)
(-0.00031175259 0.00075077077 1.6273611e-06)
(-0.00026005142 0.00076700045 2.088323e-06)
(-0.00019438725 0.00073010917 2.6389296e-06)
(-0.00013269728 0.00068070304 3.1078724e-06)
(-7.749645e-05 0.0006419265 3.9357281e-06)
(-2.6727382e-05 0.00062704896 5.6315578e-06)
(-0.0001672096 0.00025100855 6.1289333e-07)
(-0.00027108987 0.00041886206 8.1689671e-07)
(-0.00032795641 0.00056913278 1.0951205e-06)
(-0.00034265877 0.0006914425 1.4330262e-06)
(-0.00031945909 0.00076908816 1.8679663e-06)
(-0.00026788184 0.00079058922 2.3917524e-06)
(-0.00020141099 0.00075788334 3.0046612e-06)
(-0.00013795258 0.00071049188 3.5005636e-06)
(-8.0852564e-05 0.00067357026 4.4117053e-06)
(-2.7747295e-05 0.00065949295 6.3557466e-06)
(-0.00017162905 0.00025624248 6.9439668e-07)
(-0.00027698608 0.00042692733 9.047647e-07)
(-0.00033494727 0.00058041657 1.2169334e-06)
(-0.00035063373 0.00070688884 1.593497e-06)
(-0.00032798105 0.00078939124 2.0680162e-06)
(-0.00027651754 0.00081666239 2.6574559e-06)
(-0.00020908947 0.00078842521 3.3426626e-06)
(-0.00014360586 0.00074267431 3.9024184e-06)
(-8.437443e-05 0.00070681338 4.8853243e-06)
(-2.8823785e-05 0.0006925903 7.1376258e-06)
(-0.00017637463 0.00026186211 7.6662174e-07)
(-0.00028318478 0.00043542262 9.6904226e-07)
(-0.00034251411 0.00059266107 1.3092357e-06)
(-0.000359249 0.00072356359 1.7126887e-06)
(-0.00033715049 0.00081129311 2.22544e-06)
(-0.00028580804 0.00084483001 2.8661326e-06)
(-0.00021736796 0.00082161875 3.6363408e-06)
(-0.00014962801 0.00077726702 4.2689657e-06)
(-8.8036661e-05 0.00074176478 5.2844843e-06)
(-2.99359e-05 0.00072678161 7.8466336e-06)
(-0.00018165067 0.00026804489 8.0340713e-07)
(-0.00028967428 0.00044429965 9.9727217e-07)
(-0.00035043505 0.00060550375 1.3641098e-06)
(-0.00036822634 0.00074096374 1.778381e-06)
(-0.00034681366 0.00083441873 2.3283412e-06)
(-0.0002955378 0.00087449546 2.9995731e-06)
(-0.0002261123 0.00085700388 3.8451574e-06)
(-0.00015594722 0.00081399143 4.5539518e-06)
(-9.1776435e-05 0.00077820776 5.5329543e-06)
(-3.1106032e-05 0.00076232401 8.3149064e-06)
(-0.0001867277 0.00027404686 8.1771695e-07)
(-0.00029596591 0.00045298197 9.9925551e-07)
(-0.00035851235 0.00061863676 1.3819571e-06)
(-0.00037733224 0.00075865144 1.7847959e-06)
(-0.00035671971 0.00085817242 2.3637472e-06)
(-0.00030549112 0.00090499324 3.0412945e-06)
(-0.00023513934 0.00089387652 3.9460188e-06)
(-0.00016243667 0.00085218345 4.7079533e-06)
(-9.5508588e-05 0.00081545758 5.5992769e-06)
(-3.2256552e-05 0.00079848821 8.4301702e-06)
(-0.00019193432 0.00028017038 8.0320108e-07)
(-0.00030231975 0.0004617499 9.8075994e-07)
(-0.00036656411 0.00063169371 1.3575236e-06)
(-0.00038622934 0.00077599344 1.7286125e-06)
(-0.00036659755 0.00088188141 2.3204768e-06)
(-0.00031532407 0.00093530647 2.9711177e-06)
(-0.0002442689 0.00093140114 3.912593e-06)
(-0.00016893556 0.00089089825 4.6915127e-06)
(-9.9109946e-05 0.00085273959 5.4586934e-06)
(-3.3427613e-05 0.0008347857 8.1402648e-06)
(-0.00019682974 0.00028593279 7.5322858e-07)
(-0.00030845964 0.00047022103 9.3421028e-07)
(-0.00037425051 0.0006441109 1.2759956e-06)
(-0.00039463313 0.00079245167 1.6230174e-06)
(-0.00037605853 0.00090459904 2.1880457e-06)
(-0.00032464769 0.00096424457 2.7971885e-06)
(-0.0002531257 0.00096799816 3.7110387e-06)
(-0.00017520243 0.00092860359 4.5160223e-06)
(-0.00010244832 0.00088866179 5.1404752e-06)
(-3.4530475e-05 0.00086903337 7.4558431e-06)
(-0.00020129756 0.00029120115 6.8755429e-07)
(-0.00031420023 0.00047811667 8.5579959e-07)
(-0.00038119364 0.0006553203 1.1373944e-06)
(-0.00040236121 0.00080759454 1.4800531e-06)
(-0.00038471091 0.00092537474 1.9619429e-06)
(-0.0003332134 0.00099089696 2.5267715e-06)
(-0.00026126615 0.0010019366 3.3201997e-06)
(-0.00018115001 0.00096465508 4.1173924e-06)
(-0.00010545708 0.00092228156 4.6481742e-06)
(-3.543006e-05 0.00089995534 6.3262647e-06)
(-0.0002048924 0.00029548595 5.9957827e-07)
(-0.00031891507 0.00048472039 7.6539283e-07)
(-0.00038702952 0.0006648907 9.6348858e-07)
(-0.00040919993 0.00082098921 1.2974864e-06)
(-0.00039207917 0.00094310721 1.6505842e-06)
(-0.0003406969 0.0010141202 2.1628632e-06)
(-0.00026812514 0.0010306883 2.7643423e-06)
(-0.00018629123 0.00099625902 3.4763467e-06)
(-0.00010810689 0.00095153903 4.002783e-06)
(-3.604319e-05 0.00092449058 4.8519494e-06)
(-0.0002081512 0.00029933793 5.0080342e-07)
(-0.00032329101 0.00049068466 6.5967979e-07)
(-0.00039180388 0.00067269393 7.8234596e-07)
(-0.00041498034 0.00083219163 1.0628885e-06)
(-0.00039786461 0.00095707974 1.2859707e-06)
(-0.00034685068 0.0010330653 1.6865668e-06)
(-0.00027341034 0.0010530554 2.0480182e-06)
(-0.00019037588 0.0010220843 2.5488445e-06)
(-0.00011041523 0.00097585115 2.9654579e-06)
(-3.6348956e-05 0.00094278081 3.0507881e-06)
(-0.00021077259 0.00030244045 4.0949159e-07)
(-0.00032680074 0.00049545503 5.1254495e-07)
(-0.00039543951 0.00067861501 6.2017248e-07)
(-0.00041927013 0.0008404394 7.8272473e-07)
(-0.00040189196 0.0009667471 9.3198899e-07)
(-0.00035101229 0.0010456002 1.1388931e-06)
(-0.00027659216 0.0010663755 1.3155759e-06)
(-0.0001927857 0.00103696 1.4999573e-06)
(-0.00011176785 0.00098807339 1.7371516e-06)
(-3.6394576e-05 0.00094957524 1.3445419e-06)
(-0.00021285602 0.00030487076 3.2949465e-07)
(-0.00032924267 0.00049877936 3.5912658e-07)
(-0.00039813212 0.00068293461 4.6875557e-07)
(-0.00042197374 0.00084558717 5.032898e-07)
(-0.00040445936 0.00097278108 5.812549e-07)
(-0.00035324703 0.001052208 5.6858855e-07)
(-0.00027826867 0.0010731247 5.1850569e-07)
(-0.00019377504 0.0010430921 2.7594575e-07)
(-0.00011242423 0.0009930257 3.8678943e-08)
(-3.6370143e-05 0.00095076383 -6.492304e-07)
(-0.00021451712 0.00030676361 2.3155762e-07)
(-0.0003306427 0.00050069034 2.4012548e-07)
(-0.00039996243 0.00068576077 3.0669276e-07)
(-0.00042314854 0.00084771591 2.7535096e-07)
(-0.00040536748 0.00097461685 2.8692694e-07)
(-0.00035322644 0.0010514871 1.3184593e-07)
(-0.00027754224 0.0010687885 -7.5630121e-08)
(-0.00019253912 0.0010325557 -6.0012354e-07)
(-0.00011144517 0.000977045 -1.1943663e-06)
(-3.651719e-05 0.00093233644 -2.1300606e-06)
(-0.0002153994 0.00030778527 1.2886344e-07)
(-0.00033166365 0.0005020435 1.4348773e-07)
(-0.0004007231 0.00068685022 1.4358076e-07)
(-0.00042355408 0.00084845499 1.2378868e-07)
(-0.00040544484 0.00097444612 4.7115309e-08)
(-0.00035248067 0.0010488372 -1.4600525e-07)
(-0.00027648386 0.0010632349 -5.0963273e-07)
(-0.00019102475 0.0010216346 -1.280703e-06)
(-0.00011064941 0.00096361511 -2.0995773e-06)
(-3.6857319e-05 0.00091661704 -4.0928219e-06)
(-0.00021584415 0.0003082804 4.1636563e-08)
(-0.00033202665 0.00050248617 4.6624898e-08)
(-0.00040079781 0.00068698752 3.1232196e-08)
(-0.00042352739 0.00084813515 3.5119001e-08)
(-0.00040442516 0.00097170787 -4.3218249e-08)
(-0.00035088768 0.0010429514 -1.3960217e-07)
(-0.00027370416 0.0010494819 -4.1507245e-07)
(-0.00018783312 0.0009981266 -9.1586115e-07)
(-0.00010946997 0.00093252082 -1.5511994e-06)
(-3.7457808e-05 0.0008686489 -3.2877631e-06)
(0.0012273908 -5.1695438e-05 4.9591046e-09)
(0.001217135 -0.00013948261 2.7189478e-08)
(0.001154236 -0.00021693793 1.482215e-08)
(0.0010454633 -0.00027464761 1.3313452e-08)
(0.00089833343 -0.00030334429 3.2538317e-08)
(0.00072264279 -0.0002978298 2.8324578e-08)
(0.00053067752 -0.00025474667 3.5972866e-08)
(0.00033629414 -0.00017495464 4.0301739e-08)
(0.00015079173 -6.2419926e-05 4.7068906e-08)
(-1.2723104e-05 7.5424455e-05 6.2290786e-08)
(0.0012273961 -5.1677456e-05 -2.4152329e-08)
(0.0012169646 -0.00013945033 3.5616274e-08)
(0.001154104 -0.00021690946 1.700354e-08)
(0.0010453677 -0.00027460589 4.266246e-08)
(0.00089799879 -0.00030321543 6.9353913e-08)
(0.00072241805 -0.00029772151 6.9220826e-08)
(0.00053026516 -0.0002545011 8.5108691e-08)
(0.00033579822 -0.00017460749 1.0562564e-07)
(0.00015015529 -6.1889668e-05 1.2598122e-07)
(-1.3539681e-05 7.6222135e-05 1.7448156e-07)
(0.0012276887 -5.1708163e-05 -9.1567942e-09)
(0.001217052 -0.00013943094 3.666137e-08)
(0.0011540293 -0.00021685965 2.828236e-08)
(0.0010451054 -0.00027450187 7.6009625e-08)
(0.00089760487 -0.00030305293 8.5136862e-08)
(0.0007219244 -0.00029747127 9.3894526e-08)
(0.00052959246 -0.00025408683 1.1344018e-07)
(0.00033482151 -0.0001739076 1.5088758e-07)
(0.00014896845 -6.0886764e-05 1.8711243e-07)
(-1.5093998e-05 7.7768831e-05 2.6913025e-07)
(0.0012277443 -5.170041e-05 4.0297444e-08)
(0.0012171537 -0.00013941788 6.2935814e-08)
(0.0011538332 -0.00021678383 5.0098575e-08)
(0.0010446618 -0.00027435463 8.831978e-08)
(0.00089713425 -0.00030285845 8.7323503e-08)
(0.00072123328 -0.00029711839 1.0099466e-07)
(0.00052865174 -0.00025350577 1.324118e-07)
(0.00033347749 -0.00017293028 1.8221003e-07)
(0.00014724546 -5.9415499e-05 2.3892704e-07)
(-1.734774e-05 8.0023781e-05 3.5260871e-07)
(0.0012277449 -5.1678779e-05 6.3658075e-08)
(0.0012172 -0.00013940299 6.5599909e-08)
(0.0011536158 -0.00021671045 4.3229285e-08)
(0.0010441916 -0.00027420272 6.7992244e-08)
(0.00089666535 -0.00030265131 7.8994862e-08)
(0.00072042265 -0.00029668695 1.0039736e-07)
(0.00052743615 -0.00025274696 1.4896582e-07)
(0.00033181059 -0.0001717054 2.1455234e-07)
(0.00014502528 -5.7509619e-05 2.9016877e-07)
(-2.0211612e-05 8.2893089e-05 4.3565796e-07)
(0.0012277843 -5.1678132e-05 7.6404314e-08)
(0.001217204 -0.000139398 6.7362297e-08)
(0.0011534833 -0.00021666693 4.2963904e-08)