/*--------------------------------*- C++ -*----------------------------------*\
| =========                 |                                                 |
| \\      /  F ield         | OpenFOAM: The Open Source CFD Toolbox           |
|  \\    /   O peration     | Version:  2112                                  |
|   \\  /    A nd           | Website:  www.openfoam.com                      |
|    \\/     M anipulation  |                                                 |
\*---------------------------------------------------------------------------*/
FoamFile
{
    version     2.0;
    format      ascii;
    arch        "LSB;label=32;scalar=64";
    class       volVectorField;
    location    "160";
    object      moment;
}
// * * * * * * * * * * * * * * * * * * * * * * * * * * * * * * * * * * * * * //

dimensions      [1 2 -2 0 0 0 0];

internalField   uniform (0 0 0);

boundaryField
{
    outlet
    {
        type            calculated;
        value           uniform (0 0 0);
    }
    walls
    {
        type            calculated;
        value           uniform (0 0 0);
    }
    inlet
    {
        type            calculated;
        value           uniform (0 0 0);
    }
    hole
    {
        type            calculated;
        value           nonuniform List<vector> 
1600
(
(0.00029642253 -0.0002797075 -4.1760447e-05)
(0.00030309 -0.0002443193 -5.6090163e-05)
(0.00031781818 -0.00021874443 -7.1837498e-05)
(0.0003113255 -0.00018297203 -8.296226e-05)
(0.00026750247 -0.00012933152 -7.920037e-05)
(0.00024500212 -9.1333631e-05 -7.686998e-05)
(0.00024639562 -6.9092842e-05 -8.3277119e-05)
(0.00025362429 -5.1082051e-05 -9.3274733e-05)
(0.0002486825 -2.948826e-05 -9.7506287e-05)
(0.00024197549 -8.3093312e-06 -0.00010010896)
(0.00027847415 -0.00026372814 -4.4458669e-05)
(0.00028088935 -0.0002267029 -5.8407724e-05)
(0.00029006685 -0.00019957651 -7.3420951e-05)
(0.00027942947 -0.00016352677 -8.2952167e-05)
(0.00024576819 -0.00011761245 -8.0646045e-05)
(0.00022880297 -8.4635299e-05 -7.9930035e-05)
(0.00022951965 -6.4120273e-05 -8.672796e-05)
(0.00023438643 -4.6853034e-05 -9.6294854e-05)
(0.00022804417 -2.6809341e-05 -9.9993731e-05)
(0.00022180078 -7.3062751e-06 -0.00010255699)
(0.000255323 -0.00024210006 -4.6523041e-05)
(0.0002570459 -0.00020736066 -6.0706273e-05)
(0.00026409212 -0.0001813476 -7.574347e-05)
(0.00025333404 -0.00014729725 -8.4757071e-05)
(0.00022957445 -0.00010875206 -8.4727376e-05)
(0.00021726635 -8.0279419e-05 -8.6219848e-05)
(0.00021718019 -6.09083e-05 -9.3520363e-05)
(0.00021868127 -4.352197e-05 -0.00010197124)
(0.00021083986 -2.4489441e-05 -0.00010483232)
(0.0002049188 -6.4584461e-06 -0.00010745151)
(0.00022607325 -0.00021432257 -4.77027e-05)
(0.00022836528 -0.00018401705 -6.2334485e-05)
(0.00023430709 -0.00016044676 -7.7490278e-05)
(0.00022584574 -0.0001303797 -8.6705566e-05)
(0.00021089432 -9.9186073e-05 -8.9496392e-05)
(0.0002031754 -7.5161427e-05 -9.3515731e-05)
(0.00020284417 -5.7158567e-05 -0.00010149617)
(0.00020198192 -4.0082631e-05 -0.00010900919)
(0.00019349739 -2.2175856e-05 -0.00011115194)
(0.00018746687 -5.7145786e-06 -0.00011368874)
(0.00019754289 -0.00018731066 -4.9576354e-05)
(0.00019902445 -0.00016024806 -6.4460402e-05)
(0.00020337422 -0.00013882892 -7.9514143e-05)
(0.00019776563 -0.00011331398 -8.932801e-05)
(0.00018898747 -8.8370797e-05 -9.4744845e-05)
(0.00018437366 -6.8243107e-05 -0.0001009181)
(0.00018359316 -5.192e-05 -0.00010942873)
(0.00018145197 -3.5822087e-05 -0.00011616721)
(0.00017328771 -1.9554731e-05 -0.00011792603)
(0.00016751343 -4.9078832e-06 -0.00012049406)
(0.00016641605 -0.00015780422 -5.1485485e-05)
(0.00016761634 -0.0001347764 -6.6706847e-05)
(0.00017046577 -0.00011591013 -8.1586103e-05)
(0.00016760069 -9.5332859e-05 -9.2380721e-05)
(0.00016296445 -7.5761708e-05 -0.00010007592)
(0.00015996558 -5.9203109e-05 -0.00010791207)
(0.00015862511 -4.4816328e-05 -0.00011646866)
(0.00015627098 -3.0513248e-05 -0.00012277869)
(0.00014920305 -1.6498186e-05 -0.00012460359)
(0.00014397576 -3.9450493e-06 -0.00012720385)
(0.00013121437 -0.00012425308 -5.2671417e-05)
(0.00013300079 -0.00010659672 -6.8462014e-05)
(0.00013524155 -9.1478476e-05 -8.3568961e-05)
(0.00013396696 -7.5658862e-05 -9.5277732e-05)
(0.00013171632 -6.0847754e-05 -0.00010468565)
(0.00012965663 -4.7807406e-05 -0.00011362598)
(0.00012852992 -3.5992966e-05 -0.00012232627)
(0.00012681053 -2.4289844e-05 -0.00012885327)
(0.00012118449 -1.2984667e-05 -0.00013100118)
(0.0001170037 -2.7953588e-06 -0.00013383007)
(9.3095162e-05 -8.7851052e-05 -5.3042055e-05)
(9.5617872e-05 -7.6211789e-05 -6.9726391e-05)
(9.7389076e-05 -6.5421666e-05 -8.52981e-05)
(9.717564e-05 -5.4381637e-05 -9.7919437e-05)
(9.6159738e-05 -4.398906e-05 -0.00010851117)
(9.4904255e-05 -3.4592808e-05 -0.00011822111)
(9.460653e-05 -2.5966393e-05 -0.00012767251)
(9.3545471e-05 -1.7340524e-05 -0.00013467175)
(8.9471873e-05 -9.0130692e-06 -0.00013704495)
(8.6662436e-05 -1.4661701e-06 -0.00014038828)
(5.3808725e-05 -5.0392697e-05 -5.2956929e-05)
(5.6033273e-05 -4.4193454e-05 -7.0548214e-05)
(5.7277055e-05 -3.7952647e-05 -8.6617526e-05)
(5.761367e-05 -3.1665079e-05 -0.00010017492)
(5.7319997e-05 -2.5626065e-05 -0.00011165615)
(5.6904499e-05 -2.0106911e-05 -0.00012229907)
(5.7172749e-05 -1.4970884e-05 -0.00013283461)
(5.6650348e-05 -9.699302e-06 -0.00014009641)
(5.4358996e-05 -4.6046021e-06 -0.00014266991)
(5.3002812e-05 2.5641991e-08 -0.00014695338)
(1.4429679e-05 -1.2929284e-05 -5.3090192e-05)
(1.5091021e-05 -1.1221261e-05 -7.1330843e-05)
(1.5609581e-05 -9.5248312e-06 -8.7811746e-05)
(1.5918279e-05 -7.8177636e-06 -0.00010218929)
(1.5995632e-05 -6.1356002e-06 -0.00011445721)
(1.5997182e-05 -4.5837054e-06 -0.00012627365)
(1.6316279e-05 -3.0661005e-06 -0.00013766358)
(1.65316e-05 -1.4064574e-06 -0.00014488011)
(1.6202106e-05 2.0540416e-07 -0.00014785851)
(1.5912898e-05 1.6261716e-06 -0.000153503)
(-2.6188444e-05 2.5461725e-05 -5.366476e-05)
(-2.7129461e-05 2.2663278e-05 -7.2202842e-05)
(-2.7432663e-05 1.9745455e-05 -8.8935658e-05)
(-2.7501175e-05 1.6959041e-05 -0.00010386782)
(-2.7528897e-05 1.4323737e-05 -0.00011708654)
(-2.777021e-05 1.1929792e-05 -0.00013012303)
(-2.7550608e-05 9.6561668e-06 -0.00014196104)
(-2.6230576e-05 7.4219518e-06 -0.00014894268)
(-2.4742926e-05 5.3450628e-06 -0.00015273708)
(-2.4633783e-05 3.3153827e-06 -0.00016003998)
(-6.7737147e-05 6.4454346e-05 -5.357509e-05)
(-7.0028775e-05 5.702916e-05 -7.2548425e-05)
(-7.1395247e-05 4.9583478e-05 -8.9670189e-05)
(-7.2297807e-05 4.2445121e-05 -0.0001052425)
(-7.3001937e-05 3.5621491e-05 -0.00011940819)
(-7.4052036e-05 2.9310932e-05 -0.00013349814)
(-7.3706955e-05 2.3012144e-05 -0.00014540352)
(-7.092774e-05 1.6647923e-05 -0.00015215013)
(-6.834987e-05 1.0747251e-05 -0.00015736958)
(-6.8618165e-05 5.0188715e-06 -0.00016624047)
(-0.00010932537 0.00010307069 -5.2906626e-05)
(-0.00011248476 9.0999871e-05 -7.2287556e-05)
(-0.00011574955 7.9615599e-05 -9.0017144e-05)
(-0.00011815062 6.8436016e-05 -0.00010632283)
(-0.00012006109 5.759095e-05 -0.00012141357)
(-0.00012211554 4.7296159e-05 -0.00013615674)
(-0.00012122894 3.674574e-05 -0.00014787278)
(-0.0001170675 2.613723e-05 -0.00015474055)
(-0.0001143946 1.6348807e-05 -0.00016163292)
(-0.00011564245 6.7270799e-06 -0.00017192209)
(-0.00014983012 0.00014009071 -5.1542972e-05)
(-0.00015591604 0.00012558008 -7.2389903e-05)
(-0.00016053083 0.00010994416 -9.0422815e-05)
(-0.00016463719 9.4763201e-05 -0.00010718778)
(-0.00016812618 7.9975508e-05 -0.0001229666)
(-0.00017079996 6.5503433e-05 -0.00013785169)
(-0.00016903288 5.0542788e-05 -0.00014921891)
(-0.00016411874 3.5730365e-05 -0.00015662674)
(-0.0001624546 2.2051158e-05 -0.00016531933)
(-0.0001648133 8.3871975e-06 -0.00017653481)
(-0.00018856755 0.00017554212 -5.0358343e-05)
(-0.00019968928 0.0001602431 -7.2375043e-05)
(-0.00020524067 0.00014019429 -9.059086e-05)
(-0.00021107893 0.0001210307 -0.00010762046)
(-0.00021593961 0.00010218303 -0.00012363977)
(-0.00021871318 8.3379859e-05 -0.0001382878)
(-0.00021611834 6.4045448e-05 -0.0001493809)
(-0.00021161456 4.5256707e-05 -0.00015780761)
(-0.00021164633 2.7679416e-05 -0.00016800828)
(-0.00021548749 9.9133874e-06 -0.00018013959)
(-0.00022791596 0.00021230529 -5.0289315e-05)
(-0.00024206526 0.0001939419 -7.2081347e-05)
(-0.00024868212 0.00016953487 -9.0198134e-05)
(-0.00025521604 0.00014597479 -0.00010693047)
(-0.00026067143 0.00012287954 -0.00012256561)
(-0.00026340258 9.9946114e-05 -0.00013679938)
(-0.00026078959 7.6655471e-05 -0.0001479044)
(-0.0002583253 5.4456384e-05 -0.00015790199)
(-0.00025934378 3.2958344e-05 -0.00016858873)
(-0.00026460183 1.1211313e-05 -0.00018121256)
(-0.00026667162 0.0002493938 -5.06977e-05)
(-0.00028114581 0.00022532498 -7.1275298e-05)
(-0.00028801005 0.0001961725 -8.8733645e-05)
(-0.00029367819 0.00016772406 -0.00010446722)
(-0.00029899922 0.00014050724 -0.00011920508)
(-0.00030241974 0.00011412263 -0.00013302313)
(-0.0003012472 8.7613056e-05 -0.00014442681)
(-0.0003037965 6.2845677e-05 -0.00015676631)
(-0.00030791388 3.7984664e-05 -0.00016910291)
(-0.00031285234 1.236405e-05 -0.00018134874)
(-0.00030282118 0.00028484447 -5.1019231e-05)
(-0.00031729088 0.00025489483 -7.0370627e-05)
(-0.00032447465 0.0002211581 -8.7087561e-05)
(-0.00033026112 0.00018844591 -0.00010209615)
(-0.00033407805 0.00015674288 -0.00011569661)
(-0.0003345768 0.00012576412 -0.00012764658)
(-0.00033347682 9.5993426e-05 -0.00013826174)
(-0.00034046803 6.913676e-05 -0.00015172911)
(-0.00034919103 4.1853463e-05 -0.00016576665)
(-0.00035301891 1.3122246e-05 -0.00017730407)
(-0.00035068546 0.00033258964 -5.3649461e-05)
(-0.00036376513 0.00029383081 -7.2296611e-05)
(-0.00036922944 0.00025254914 -8.8249819e-05)
(-0.00037132427 0.00021216984 -0.00010178889)
(-0.00037132293 0.00017356249 -0.00011335677)
(-0.00037168204 0.00013771518 -0.00012404083)
(-0.00037581979 0.00010508861 -0.00013555447)
(-0.00039050841 7.6539429e-05 -0.0001518698)
(-0.00039976716 4.6524043e-05 -0.00016685543)
(-0.00039240425 1.4373913e-05 -0.00017426143)
(-0.00035916876 0.00034665658 -5.1975202e-05)
(-0.00035941783 0.00029588128 -6.6847765e-05)
(-0.00035224364 0.00024579009 -7.8169748e-05)
(-0.00034011738 0.00019777722 -8.5649619e-05)
(-0.00033358285 0.00015719007 -9.2131048e-05)
(-0.00033879396 0.00012403577 -0.00010042727)
(-0.00036322814 9.8215034e-05 -0.00011521922)
(-0.00039923042 7.3671021e-05 -0.00013604605)
(-0.00042056832 4.5835425e-05 -0.00015522157)
(-0.00041524314 1.3790435e-05 -0.00016437062)
(1.5214454e-05 -0.00091116408 0.00026527945)
(7.7127535e-05 -0.00081120252 0.00020835536)
(0.00012272991 -0.00069859019 0.0001554633)
(0.0001556061 -0.00059591477 0.00011241911)
(0.0001798699 -0.00051055333 7.8779939e-05)
(0.00020116832 -0.00044644548 5.2957481e-05)
(0.00022325664 -0.00040210693 3.1874478e-05)
(0.00024328405 -0.00036594873 1.2306306e-05)
(0.00026001132 -0.00033195169 -6.1677359e-06)
(0.00028149539 -0.00030851023 -2.4464056e-05)
(1.8747991e-05 -0.00089219179 0.0002938279)
(8.0157582e-05 -0.00081094183 0.00023556338)
(0.00012868428 -0.00071913292 0.00018095518)
(0.00016473198 -0.00062694986 0.00013321535)
(0.00019192264 -0.00054533093 9.4155111e-05)
(0.00021380036 -0.0004780622 6.2553097e-05)
(0.00023215627 -0.00042343677 3.5936252e-05)
(0.00024664728 -0.00037551856 1.2592985e-05)
(0.00025926621 -0.00033396291 -8.0282589e-06)
(0.00027219249 -0.00030029541 -2.7408426e-05)
(1.9281218e-05 -0.00078929011 0.00029775692)
(7.3402114e-05 -0.00072172107 0.00024003943)
(0.00011675961 -0.0006435698 0.0001853938)
(0.00014907027 -0.0005633134 0.00013690494)
(0.00017373388 -0.00049215951 9.700108e-05)
(0.00019394836 -0.00043384163 6.4490743e-05)
(0.00021149398 -0.00038629392 3.7082301e-05)
(0.00022689257 -0.00034585216 1.3027977e-05)
(0.00024055397 -0.00031077998 -8.8709583e-06)
(0.00025085484 -0.00027756445 -2.9139676e-05)
(1.5389553e-05 -0.00066315886 0.00028911468)
(6.078166e-05 -0.00060348939 0.000232016)
(9.6435848e-05 -0.00053385386 0.00017781323)
(0.00012349832 -0.00046667857 0.0001314229)
(0.0001447256 -0.00040832488 9.3751742e-05)
(0.00016453712 -0.00036538214 6.3896828e-05)
(0.00018244468 -0.00033099969 3.7734567e-05)
(0.00019820428 -0.00030098827 1.3646581e-05)
(0.00021265338 -0.0002743712 -8.9032302e-06)
(0.00022224064 -0.00024592617 -2.9927124e-05)
(1.1962839e-05 -0.00056704476 0.00029250525)
(5.1177277e-05 -0.00051841091 0.00023575477)
(8.2647138e-05 -0.00046238301 0.00018210518)
(0.00010720915 -0.00040785066 0.0001357626)
(0.00012699291 -0.00035953467 9.7679035e-05)
(0.00014678563 -0.00032568814 6.7819619e-05)
(0.00016422245 -0.00029737252 4.0575915e-05)
(0.00017674891 -0.00026823839 1.4546469e-05)
(0.00018834868 -0.00024314115 -9.450794e-06)
(0.00019561785 -0.00021663204 -3.1430758e-05)
(1.0209566e-05 -0.00047100194 0.0002998451)
(4.3578931e-05 -0.00043783661 0.00024590792)
(7.1762392e-05 -0.000398639 0.00019419843)
(9.4703544e-05 -0.00035830797 0.00014768449)
(0.00011342248 -0.00032073709 0.00010756998)
(0.00012960037 -0.00028858397 7.3522445e-05)
(0.00014215883 -0.0002586882 4.2737709e-05)
(0.00015163897 -0.00023096442 1.4887668e-05)
(0.00016027565 -0.00020748113 -1.0341994e-05)
(0.00016546825 -0.00018353977 -3.3029925e-05)
(8.4819408e-06 -0.00037289068 0.00031004534)
(3.5103535e-05 -0.00034997309 0.000256608)
(5.7970311e-05 -0.00032126682 0.00020417209)
(7.6767777e-05 -0.00029013623 0.00015596471)
(9.1820169e-05 -0.00026011951 0.00011340567)
(0.00010279517 -0.00023000765 7.5588738e-05)
(0.0001112924 -0.00020326776 4.3170636e-05)
(0.00011932804 -0.00018220311 1.4915992e-05)
(0.00012645051 -0.00016412013 -1.1043768e-05)
(0.00013014806 -0.00014458911 -3.4112276e-05)
(6.0480502e-06 -0.00026351993 0.00031451182)
(2.5076945e-05 -0.00025022038 0.00026318122)
(4.1687405e-05 -0.00023160962 0.00021092538)
(5.5236279e-05 -0.0002095839 0.00016111491)
(6.5117055e-05 -0.00018529285 0.00011522877)
(7.1775547e-05 -0.00016151806 7.5254102e-05)
(7.7274019e-05 -0.00014173902 4.2513441e-05)
(8.3734475e-05 -0.00012813025 1.4712206e-05)
(8.9168842e-05 -0.00011597069 -1.1503983e-05)
(9.177893e-05 -0.00010200341 -3.4581667e-05)
(2.9286544e-06 -0.00015435204 0.00032310099)
(1.4298061e-05 -0.00014758408 0.00027239024)
(2.4188577e-05 -0.00013644968 0.00021819611)
(3.1765201e-05 -0.00012165026 0.00016417437)
(3.6740075e-05 -0.00010530832 0.00011475543)
(3.9987878e-05 -9.0539008e-05 7.3672758e-05)
(4.2999733e-05 -7.9266799e-05 4.1282587e-05)
(4.6764598e-05 -7.1756102e-05 1.415028e-05)
(5.0644523e-05 -6.5862449e-05 -1.1548796e-05)
(5.2599769e-05 -5.8311657e-05 -3.463442e-05)
(-2.0137717e-07 -3.8182002e-05 0.00032787407)
(2.897241e-06 -3.5704312e-05 0.00027446604)
(5.4393115e-06 -3.1865419e-05 0.00021675809)
(7.132692e-06 -2.7153669e-05 0.00015959021)
(8.0284883e-06 -2.2777804e-05 0.00010902295)
(8.6414659e-06 -1.9498985e-05 6.9253364e-05)
(9.3174105e-06 -1.7194911e-05 3.8644129e-05)
(1.03892e-05 -1.594189e-05 1.3617338e-05)
(1.2036136e-05 -1.5550566e-05 -1.0807647e-05)
(1.355539e-05 -1.4693578e-05 -3.4468363e-05)
(-2.6844424e-06 7.9375687e-05 0.00031864802)
(-7.9902585e-06 7.4994642e-05 0.00026318809)
(-1.2457028e-05 6.8795919e-05 0.00020647349)
(-1.5917778e-05 6.0928378e-05 0.00015277235)
(-1.8186842e-05 5.2901426e-05 0.00010499006)
(-1.9633964e-05 4.537462e-05 6.562319e-05)
(-2.1125386e-05 3.9578616e-05 3.595703e-05)
(-2.3372397e-05 3.5938412e-05 1.2858594e-05)
(-2.5957177e-05 3.3470893e-05 -9.6908539e-06)
(-2.6169537e-05 2.9312204e-05 -3.3627067e-05)
(-5.5792265e-06 0.0001877402 0.00030762373)
(-1.9195615e-05 0.00018037444 0.00026057384)
(-3.069429e-05 0.00016835958 0.00020877326)
(-3.9111767e-05 0.00015060081 0.00015471885)
(-4.3775551e-05 0.00012843495 0.00010375993)
(-4.6435699e-05 0.00010802198 6.3414582e-05)
(-4.8494173e-05 9.1376915e-05 3.3408696e-05)
(-5.2373355e-05 8.0846318e-05 1.1392084e-05)
(-6.0112355e-05 7.7105519e-05 -8.4775843e-06)
(-6.588338e-05 7.2347717e-05 -3.1638291e-05)
(-8.4805024e-06 0.00030251979 0.00031097575)
(-2.9884126e-05 0.00029095444 0.00026227823)
(-4.8200519e-05 0.00026950856 0.00020841591)
(-6.2033944e-05 0.00024058379 0.0001546911)
(-7.0234686e-05 0.00020639034 0.00010476243)
(-7.4384613e-05 0.00017341487 6.379468e-05)
(-7.5416676e-05 0.00014321752 3.1938641e-05)
(-7.7515746e-05 0.00012054282 9.7795278e-06)
(-8.7937092e-05 0.00011248868 -7.445768e-06)
(-0.0001032064 0.00011180605 -2.9066333e-05)
(-1.0405709e-05 0.00041188426 0.00030712063)
(-3.9693493e-05 0.00039459077 0.00025822807)
(-6.4673031e-05 0.00036399101 0.0002047383)
(-8.3469812e-05 0.00032421558 0.0001519281)
(-9.5792577e-05 0.00028121493 0.00010430184)
(-0.0001019933 0.00023813207 6.3718811e-05)
(-0.00010175556 0.0001944145 3.0846434e-05)
(-0.000101139 0.00015815329 8.7082098e-06)
(-0.00011342924 0.00014464596 -6.6191319e-06)
(-0.00013856409 0.00014896279 -2.7304355e-05)
(-1.2995592e-05 0.00051699487 0.00030339215)
(-4.917835e-05 0.00049076725 0.00025259493)
(-7.9705111e-05 0.00044930723 0.00019879903)
(-0.00010246071 0.00039814664 0.00014682499)
(-0.00011871878 0.00034765728 0.0001018455)
(-0.00012819416 0.00029848009 6.3255329e-05)
(-0.00012847236 0.00024561278 3.0597863e-05)
(-0.00012409391 0.00019465886 8.0799332e-06)
(-0.00014093207 0.00017964618 -6.4257029e-06)
(-0.00017422774 0.00018718821 -2.6935006e-05)
(-1.570589e-05 0.00062336501 0.00030167456)
(-5.9425675e-05 0.00058641206 0.00024956036)
(-9.572883e-05 0.00053402179 0.0001958419)
(-0.00012319501 0.00047432142 0.00014534374)
(-0.00014209265 0.00041372395 0.00010070338)
(-0.0001543992 0.00035767438 6.3197718e-05)
(-0.00015684678 0.00029826005 3.133009e-05)
(-0.00015389458 0.00024047549 8.678613e-06)
(-0.00017544107 0.00022464114 -7.1582661e-06)
(-0.00021064961 0.00022772836 -2.7787448e-05)
(-1.8783044e-05 0.00073809439 0.00030405087)
(-7.1744932e-05 0.00069795889 0.00025359607)
(-0.00011635695 0.00064013877 0.00020110964)
(-0.00015116769 0.00057440616 0.00015139981)
(-0.00017605064 0.00050626548 0.00010658091)
(-0.0001924461 0.00044118503 6.7831243e-05)
(-0.00019662356 0.00037093087 3.4247575e-05)
(-0.00019611655 0.00030534061 9.8319846e-06)
(-0.00022157917 0.00028556759 -8.5709529e-06)
(-0.00025011294 0.00027306672 -2.9579381e-05)
(-2.3142675e-05 0.00086906651 0.00031230753)
(-8.651299e-05 0.00083184704 0.00026376395)
(-0.00014156044 0.00077355184 0.00021218)
(-0.00018574646 0.00070205303 0.00016173179)
(-0.00021803461 0.00062384352 0.00011504321)
(-0.0002389411 0.00054473443 7.3749057e-05)
(-0.00024689408 0.00046247156 3.8224214e-05)
(-0.0002500802 0.00038933997 1.0915264e-05)
(-0.0002660825 0.00034631844 -1.0360817e-05)
(-0.00028606718 0.00031531158 -3.0907147e-05)
(-2.682983e-05 0.00099013901 0.00031523626)
(-9.9389381e-05 0.00095379544 0.0002678012)
(-0.000163754 0.00089548934 0.00021731296)
(-0.00021651394 0.00081975451 0.00016689898)
(-0.00025734725 0.00073692445 0.00012014687)
(-0.00028558603 0.00065052865 7.8088569e-05)
(-0.00030173998 0.00056415052 4.1574387e-05)
(-0.00030816447 0.00048128755 1.145912e-05)
(-0.00031676862 0.00041626788 -1.2373969e-05)
(-0.00033436168 0.00037211721 -3.3526661e-05)
(-2.9821357e-05 0.0011040281 0.00031520079)
(-0.0001104283 0.0010649232 0.00026784759)
(-0.00018255873 0.0010029437 0.0002177925)
(-0.00024237694 0.00092262976 0.00016772093)
(-0.00028776641 0.00082973744 0.00012022846)
(-0.00031876219 0.00073209149 7.7443469e-05)
(-0.00033487537 0.00063222503 4.0194959e-05)
(-0.00034167477 0.00053940869 9.873707e-06)
(-0.00034671969 0.00046166906 -1.4132374e-05)
(-0.0003547681 0.00040115903 -3.4374524e-05)
(0.00010967565 7.1772747e-05 -9.368698e-05)
(0.00018380778 0.0001180581 -0.00013979092)
(0.00024936191 0.00014305947 -0.00017444727)
(0.00030019772 0.00014837617 -0.0001954882)
(0.00032910416 0.00013664329 -0.0002003388)
(0.00033004674 0.0001122106 -0.00018777931)
(0.0003071091 8.2392829e-05 -0.0001630331)
(0.00027987879 5.5476077e-05 -0.00013847927)
(0.00025934808 3.2372918e-05 -0.00012020104)
(0.00024886484 1.1759163e-05 -0.00010870484)
(9.8365408e-05 6.4522364e-05 -9.4070134e-05)
(0.0001648309 0.00010600657 -0.0001403818)
(0.00022364113 0.00012843697 -0.00017521807)
(0.00026950383 0.00013333871 -0.00019655315)
(0.00029591796 0.00012299525 -0.00020174458)
(0.00029760791 0.00010129565 -0.00018963637)
(0.00027797564 7.4688426e-05 -0.00016525735)
(0.00025424547 5.0493211e-05 -0.0001408722)
(0.00023613991 2.9584695e-05 -0.00012254008)
(0.00022755962 1.0957981e-05 -0.00011120146)
(8.7359679e-05 5.7526767e-05 -9.4856667e-05)
(0.00014624737 9.4236815e-05 -0.00014149636)
(0.00019852929 0.00011417808 -0.00017673241)
(0.00023961202 0.00011871221 -0.00019856391)
(0.00026376667 0.00010976898 -0.00020434467)
(0.00026648002 9.0818044e-05 -0.0001929597)
(0.00025028551 6.7322633e-05 -0.00016911118)
(0.00023042176 4.5805181e-05 -0.00014512088)
(0.00021504101 2.6976438e-05 -0.0001268444)
(0.00020844637 1.0094529e-05 -0.00011576054)
(7.6431298e-05 5.0585663e-05 -9.598776e-05)
(0.00012780834 8.2562876e-05 -0.00014312465)
(0.00017358675 0.0001000167 -0.000178902)
(0.00020994131 0.00010418288 -0.00020143655)
(0.00023189602 9.6647441e-05 -0.00020803377)
(0.00023565307 8.0409214e-05 -0.00019762474)
(0.0002229386 6.001943e-05 -0.00017448839)
(0.00020671163 4.1089729e-05 -0.00015085522)
(0.00019407762 2.434684e-05 -0.00013264992)
(0.00018927468 9.2278336e-06 -0.0001217298)
(6.5401094e-05 4.3552164e-05 -9.7414139e-05)
(0.00010923242 7.0782319e-05 -0.00014520181)
(0.00014839645 8.5700247e-05 -0.0001815991)
(0.00017989844 8.9451903e-05 -0.00020498701)
(0.00019944852 8.3280302e-05 -0.00021250577)
(0.00020392074 6.9692415e-05 -0.00020314649)
(0.00019435204 5.2398288e-05 -0.00018072171)
(0.00018144303 3.6089278e-05 -0.0001573697)
(0.00017147288 2.1554824e-05 -0.00013925589)
(0.00016813468 8.3195294e-06 -0.00012837523)
(5.4099761e-05 3.6280499e-05 -9.9064309e-05)
(9.0253323e-05 5.8700374e-05 -0.00014762975)
(0.00012265421 7.1033625e-05 -0.00018475697)
(0.00014906986 7.4308075e-05 -0.00020911487)
(0.0001659213 6.9448018e-05 -0.00021766004)
(0.00017073901 5.848654e-05 -0.00020944751)
(0.00016393903 4.4311774e-05 -0.00018771931)
(0.000153946 3.0701117e-05 -0.0001644441)
(0.00014634472 1.8524713e-05 -0.00014628115)
(0.0001440106 7.3614843e-06 -0.00013514423)
(4.2430609e-05 2.869317e-05 -0.00010092764)
(7.0662285e-05 4.6163507e-05 -0.00015030848)
(9.6091726e-05 5.5847471e-05 -0.0001882903)
(0.00011709226 5.8562273e-05 -0.0002136948)
(0.00013087766 5.4963041e-05 -0.00022337911)
(0.00013559632 4.6616427e-05 -0.00021641836)
(0.0001311961 3.5621613e-05 -0.00019542916)
(0.00012386814 2.4855819e-05 -0.00017209521)
(0.00011831527 1.5185729e-05 -0.00015366282)
(0.00011677007 6.3234527e-06 -0.00014203695)
(3.0280406e-05 2.0696398e-05 -0.00010292819)
(5.0308454e-05 3.305979e-05 -0.00015313291)
(6.8503513e-05 4.0014376e-05 -0.00019212957)
(8.3699491e-05 4.2074278e-05 -0.00021863722)
(9.3974622e-05 3.9682886e-05 -0.00022955572)
(9.8068985e-05 3.3936777e-05 -0.00022396158)
(9.5689263e-05 2.6217728e-05 -0.00020383043)
(9.0837218e-05 1.8477111e-05 -0.00018033788)
(8.7132182e-05 1.1491436e-05 -0.00016143788)
(8.632016e-05 5.1658652e-06 -0.00014915749)
(1.7597159e-05 1.2240441e-05 -0.00010511731)
(2.9121172e-05 1.9336747e-05 -0.00015608129)
(3.9719798e-05 2.3429738e-05 -0.00019616053)
(4.8671103e-05 2.4724531e-05 -0.00022379828)
(5.4944385e-05 2.3495572e-05 -0.00023608308)
(5.7798271e-05 2.0328573e-05 -0.00023192337)
(5.6977448e-05 1.5987794e-05 -0.00021281311)
(5.4457853e-05 1.1491233e-05 -0.00018911367)
(5.2498745e-05 7.3969729e-06 -0.00016957201)
(5.245487e-05 3.8479684e-06 -0.00015655448)
(4.2880478e-06 3.2417784e-06 -0.0001072521)
(7.0369049e-06 4.9484178e-06 -0.00015897845)
(9.6463425e-06 6.0376679e-06 -0.00020028865)
(1.1890066e-05 6.4526513e-06 -0.0002290503)
(1.3590507e-05 6.3179664e-06 -0.00024279366)
(1.4544263e-05 5.7165419e-06 -0.00024012429)
(1.4713714e-05 4.8514355e-06 -0.00022220149)
(1.4383524e-05 3.8370248e-06 -0.00019826814)
(1.4170061e-05 2.8812927e-06 -0.00017791752)
(1.4921386e-05 2.3352382e-06 -0.00016409487)
(-9.6317664e-06 -6.2846644e-06 -0.00010942433)
(-1.5923554e-05 -1.0081682e-05 -0.00016190414)
(-2.1748974e-05 -1.218143e-05 -0.00020438722)
(-2.666554e-05 -1.2750312e-05 -0.00023420849)
(-3.0161071e-05 -1.1881448e-05 -0.00024949452)
(-3.178873e-05 -9.9283381e-06 -0.00024829476)
(-3.1304533e-05 -7.2362842e-06 -0.00023177476)
(-2.9586256e-05 -4.5171605e-06 -0.00020757491)
(-2.7956351e-05 -2.0565565e-06 -0.00018631663)
(-2.637468e-05 6.1775596e-07 -0.00017165737)
(-2.4140928e-05 -1.6324433e-05 -0.00011146936)
(-3.9742376e-05 -2.5743269e-05 -0.00016473052)
(-5.4410759e-05 -3.1201915e-05 -0.00020827722)
(-6.6894352e-05 -3.2822998e-05 -0.00023911521)
(-7.6226362e-05 -3.1069696e-05 -0.00025591635)
(-8.1069229e-05 -2.6551912e-05 -0.00025611475)
(-8.1052022e-05 -2.0270202e-05 -0.00024112696)
(-7.7395792e-05 -1.3548826e-05 -0.00021666029)
(-7.3756869e-05 -7.3781462e-06 -0.00019445496)
(-7.1264037e-05 -1.2976771e-06 -0.00017879351)
(-3.916304e-05 -2.6804483e-05 -0.00011334076)
(-6.4338342e-05 -4.1981165e-05 -0.00016736057)
(-8.8166359e-05 -5.0917955e-05 -0.0002117877)
(-0.0001086021 -5.3661438e-05 -0.00024363095)
(-0.00012432971 -5.1133207e-05 -0.0002617892)
(-0.00013296572 -4.4041513e-05 -0.00026332391)
(-0.00013416293 -3.415662e-05 -0.00024982389)
(-0.00012882846 -2.3230451e-05 -0.00022536226)
(-0.00012289904 -1.3034115e-05 -0.00020211169)
(-0.00011928465 -3.393717e-06 -0.00018527027)
(-5.4534865e-05 -3.7581839e-05 -0.00011487122)
(-8.9487776e-05 -5.8609467e-05 -0.00016958123)
(-0.00012274906 -7.1140327e-05 -0.00021480932)
(-0.00015151204 -7.5125744e-05 -0.00024762455)
(-0.00017397352 -7.1859279e-05 -0.00026680687)
(-0.00018692286 -6.222234e-05 -0.0002695992)
(-0.00018976274 -4.8675395e-05 -0.0002572041)
(-0.00018312591 -3.3429768e-05 -0.0002330154)
(-0.00017464915 -1.8964161e-05 -0.00020876405)
(-0.00016933631 -5.6024304e-06 -0.00019044445)
(-7.0235801e-05 -4.864553e-05 -0.00011624121)
(-0.00011515102 -7.5637408e-05 -0.00017155835)
(-0.00015787543 -9.1700285e-05 -0.00021726874)
(-0.00019526114 -9.7048327e-05 -0.00025094711)
(-0.00022452316 -9.2972004e-05 -0.00027076682)
(-0.00024223278 -8.0880947e-05 -0.00027470288)
(-0.00024679042 -6.3564083e-05 -0.0002629622)
(-0.00023932316 -4.3980127e-05 -0.00023930879)
(-0.00022829852 -2.5180345e-05 -0.00021425513)
(-0.00022048807 -7.8720065e-06 -0.00019435447)
(-8.6106719e-05 -5.9849414e-05 -0.00011734538)
(-0.00014108046 -9.2877168e-05 -0.00017313734)
(-0.00019324068 -0.00011240409 -0.00021913152)
(-0.00023930144 -0.00011914436 -0.00025338363)
(-0.00027523986 -0.00011415787 -0.00027349921)
(-0.00029763306 -9.9613782e-05 -0.00027805101)
(-0.00030348174 -7.8387238e-05 -0.00026637988)
(-0.0002950236 -5.4497733e-05 -0.00024291451)
(-0.0002809996 -3.1404396e-05 -0.0002169491)
(-0.00027015939 -1.0077173e-05 -0.0001958307)
(-0.00010206025 -7.1129123e-05 -0.0001182038)
(-0.00016700405 -0.00011011339 -0.00017423863)
(-0.00022865868 -0.0001331504 -0.00022047978)
(-0.0002831278 -0.00014113768 -0.00025489687)
(-0.00032570512 -0.00013525606 -0.00027518835)
(-0.00035230846 -0.00011812572 -0.00027980295)
(-0.00035932521 -9.3045986e-05 -0.00026809034)
(-0.00034934202 -6.4832551e-05 -0.00024440222)
(-0.00033265022 -3.7652111e-05 -0.00021800317)
(-0.00031873261 -1.2326579e-05 -0.00019610026)
(-0.00011805377 -8.246425e-05 -0.00011886405)
(-0.00019270759 -0.00012717514 -0.0001748726)
(-0.00026393649 -0.00015383907 -0.00022134368)
(-0.0003262919 -0.0001627899 -0.0002555064)
(-0.00037514034 -0.00015594908 -0.00027566367)
(-0.00040478052 -0.00013594301 -0.00027954067)
(-0.00041150859 -0.00010687915 -0.00026687539)
(-0.00039773799 -7.4306081e-05 -0.00024168819)
(-0.00037657576 -4.3215402e-05 -0.00021420749)
(-0.00035969341 -1.4526911e-05 -0.00019200198)
(-0.00013385864 -9.3629265e-05 -0.00011922352)
(-0.00021835415 -0.00014420061 -0.00017531434)
(-0.00029874174 -0.00017424598 -0.00022166208)
(-0.00036904253 -0.00018419105 -0.0002557187)
(-0.00042386975 -0.00017634923 -0.00027557032)
(-0.00045629071 -0.00015338354 -0.00027879014)
(-0.00046267578 -0.00012044152 -0.00026536169)
(-0.00044484649 -8.3476738e-05 -0.00023895439)
(-0.00041989934 -4.8675703e-05 -0.00021100832)
(-0.00040015775 -1.6931778e-05 -0.00018843099)
(-0.00014950696 -0.00010466197 -0.00011939401)
(-0.00024369449 -0.00016100918 -0.00017545182)
(-0.00033318066 -0.00019437202 -0.00022170782)
(-0.00041133551 -0.00020539519 -0.00025558428)
(-0.00047129145 -0.00019616388 -0.00027475962)
(-0.00050587593 -0.00017023259 -0.00027710293)
(-0.00050913606 -0.00013288582 -0.00026166566)
(-0.00048440281 -9.1371506e-05 -0.00023304668)
(-0.00045280955 -5.3494269e-05 -0.00020337176)
(-0.0004224429 -1.8889078e-05 -0.00017768677)
(-2.4039025e-05 -0.00057073324 0.00019618059)
(-6.4861896e-05 -0.00056594883 0.00020819697)
(-0.00010087692 -0.0005367095 0.0002103224)
(-0.00012771133 -0.00048613135 0.00020203401)
(-0.00014105435 -0.00041770329 0.00018226226)
(-0.00013848918 -0.00033601038 0.00015194007)
(-0.00011845382 -0.00024674217 0.00011204781)
(-8.1348764e-05 -0.00015635197 6.4768219e-05)
(-2.9017767e-05 -7.0090274e-05 1.2952423e-05)
(3.5084153e-05 5.9515548e-06 -4.0350047e-05)
(-2.1442995e-05 -0.00050938627 0.00019616871)
(-5.7875139e-05 -0.00050501551 0.00020815895)
(-9.001832e-05 -0.00047894144 0.00021029582)
(-0.00011396206 -0.00043379856 0.00020200423)
(-0.00012583281 -0.00037262312 0.00018218375)
(-0.00012355033 -0.00029975824 0.00015188258)
(-0.00010560995 -0.00022000592 0.00011193046)
(-7.2448635e-05 -0.00013929126 6.4617847e-05)
(-2.5664142e-05 -6.2239819e-05 1.2739713e-05)
(3.1665187e-05 5.7178774e-06 -4.0647788e-05)
(-1.8872286e-05 -0.00044811278 0.00019622833)
(-5.0895641e-05 -0.00044419847 0.00020815343)
(-7.9155258e-05 -0.00042120118 0.00021025753)
(-0.00010019428 -0.0003814117 0.00020192964)
(-0.00011061237 -0.00032756884 0.00018208412)
(-0.00010857146 -0.00026344103 0.0001517482)
(-9.2731015e-05 -0.00019322911 0.00011173034)
(-6.3457025e-05 -0.00012211699 6.4311723e-05)
(-2.219386e-05 -5.4262646e-05 1.233471e-05)
(2.8436526e-05 5.6618734e-06 -4.1230595e-05)
(-1.6290883e-05 -0.00038671129 0.00019623017)
(-4.3922376e-05 -0.00038335959 0.00020815361)