/*--------------------------------*- C++ -*----------------------------------*\
| =========                 |                                                 |
| \\      /  F ield         | OpenFOAM: The Open Source CFD Toolbox           |
|  \\    /   O peration     | Version:  2112                                  |
|   \\  /    A nd           | Website:  www.openfoam.com                      |
|    \\/     M anipulation  |                                                 |
\*---------------------------------------------------------------------------*/
FoamFile
{
    version     2.0;
    format      ascii;
    arch        "LSB;label=32;scalar=64";
    class       volScalarField;
    location    "160";
    object      yPlus;
}
// * * * * * * * * * * * * * * * * * * * * * * * * * * * * * * * * * * * * * //

dimensions      [0 0 0 0 0 0 0];

internalField   uniform 0;

boundaryField
{
    outlet
    {
        type            calculated;
        value           uniform 0;
    }
    walls
    {
        type            calculated;
        value           uniform 0;
    }
    inlet
    {
        type            calculated;
        value           uniform 0;
    }
    hole
    {
        type            calculated;
        value           nonuniform List<scalar> 
1600
(
0.19390422
0.19343025
0.21500877
0.25516865
0.2211135
0.11191735
0.080217881
0.093298691
0.069272602
0.09696402
0.22547055
0.21438611
0.22767087
0.25664012
0.22586902
0.16203996
0.13855536
0.13301778
0.12092801
0.12232254
0.23559656
0.22148499
0.23417358
0.25733407
0.23378992
0.194455
0.17251457
0.16589439
0.1572083
0.14818334
0.24250484
0.22662817
0.23494342
0.25294215
0.23563722
0.20813647
0.19168199
0.18883959
0.18150784
0.16443175
0.25624958
0.23801582
0.23818941
0.24888873
0.23596565
0.21202755
0.20091657
0.20373637
0.1962459
0.17562806
0.26706345
0.24782586
0.24104581
0.24382811
0.23212337
0.2120888
0.20590237
0.21257549
0.20536212
0.18508391
0.26849738
0.25005485
0.24260571
0.240441
0.22723026
0.21163099
0.20868628
0.21813953
0.21169456
0.19434757
0.26303808
0.24547763
0.24028847
0.23774074
0.22487918
0.21169089
0.21173061
0.22208991
0.21702617
0.2027874
0.25897088
0.23939096
0.2360702
0.23485391
0.22429048
0.21314888
0.21497109
0.22495786
0.22156473
0.21014037
0.26031324
0.23713945
0.23423677
0.23191158
0.2238034
0.21459757
0.2175573
0.22732756
0.22518144
0.21476871
0.25430038
0.23659997
0.23214089
0.22952349
0.22206437
0.21517132
0.21933476
0.22853849
0.22781207
0.21717062
0.23782284
0.23133635
0.2282645
0.22584316
0.21974875
0.21453649
0.22025833
0.22897806
0.22895653
0.21461242
0.2096581
0.22787642
0.224271
0.22089254
0.21693712
0.21217943
0.219838
0.228265
0.2281228
0.20742631
0.1747117
0.22062146
0.22232473
0.21668365
0.2124227
0.20831446
0.21761241
0.2253941
0.22325443
0.19343662
0.16095128
0.20694132
0.21722817
0.20934432
0.20327713
0.20042891
0.21137796
0.21875185
0.21058921
0.16743475
0.16249224
0.19424106
0.20496236
0.19568422
0.18630991
0.18611987
0.19803962
0.20678147
0.19036418
0.12771929
0.16731001
0.18610148
0.1906689
0.18045641
0.16521313
0.16274078
0.17051741
0.17664656
0.14922004
0.039062545
0.19175882
0.19581661
0.19420332
0.18188485
0.16774011
0.15032994
0.13695356
0.14304392
0.10172534
0.10457333
0.25269753
0.25525965
0.25604525
0.25333431
0.24145941
0.21307214
0.15297347
0.10159118
0.10077662
0.13761897
0.30355495
0.29554647
0.28371954
0.25709465
0.21593465
0.17780475
0.18567037
0.20807882
0.17328232
0.14340345
0.4092925
0.39514978
0.37213211
0.33768887
0.29961244
0.26233702
0.22484632
0.18717792
0.16107976
0.16714278
0.38536925
0.38345596
0.37038915
0.34670181
0.31532593
0.28265084
0.2553499
0.23580994
0.2212709
0.21904674
0.35033738
0.35427816
0.34136136
0.3159717
0.27918898
0.24346468
0.22023532
0.21113213
0.21710458
0.23024348
0.37724051
0.37385212
0.35337157
0.31666053
0.2646646
0.20927799
0.18515304
0.19385645
0.21562284
0.2376692
0.38156267
0.37541182
0.35650435
0.32559374
0.28176456
0.23637629
0.21585353
0.2156828
0.23320602
0.25452503
0.36434734
0.3625381
0.34782745
0.32503615
0.30023985
0.26758036
0.24128441
0.2352713
0.24992505
0.26832061
0.34353502
0.34940562
0.34128108
0.32045771
0.29737402
0.26794409
0.23866537
0.2346447
0.25744666
0.27522841
0.32525873
0.33424432
0.33210702
0.31830711
0.29781023
0.27579733
0.2461323
0.23568241
0.26357186
0.27939832
0.31540361
0.32528533
0.32769901
0.32355047
0.31436225
0.29680653
0.26575044
0.24147754
0.26089011
0.28208589
0.29733861
0.31432651
0.3311049
0.34969524
0.35485092
0.33210341
0.28914977
0.23851632
0.23469659
0.27628293
0.29694962
0.33960546
0.37333121
0.38876747
0.38319201
0.35578637
0.306748
0.23838095
0.19486048
0.24926161
0.30510182
0.35533789
0.3915233
0.41168357
0.41201747
0.38403462
0.32997159
0.25042431
0.16478878
0.18371423
0.33308067
0.37531269
0.40009307
0.4113554
0.41172794
0.39325787
0.35358159
0.27132419
0.13221142
0.10333266
0.3482124
0.38244317
0.40119684
0.40549666
0.40317688
0.39504737
0.36939005
0.28616735
0.1247566
0.15039742
0.35181216
0.38628361
0.4005807
0.4014933
0.39261025
0.38582335
0.37318708
0.30003592
0.18773333
0.18202931
0.34938761
0.3762451
0.38784527
0.38929567
0.38462658
0.37887867
0.36845529
0.31058707
0.24258462
0.19157002
0.35185695
0.36705959
0.37200902
0.37094946
0.3683051
0.36889449
0.36684287
0.32117514
0.25316152
0.1898597
0.34296953
0.35787732
0.36294302
0.36083824
0.35696667
0.3548184
0.3520377
0.32090796
0.25692969
0.2069225
0.33269835
0.35068389
0.35957426
0.35976569
0.35326239
0.34508674
0.33693739
0.31912077
0.28484864
0.25850441
0.33154855
0.3545853
0.36698992
0.37293192
0.37327636
0.37118755
0.36844146
0.35601411
0.33279781
0.31343485
0.42949059
0.42296615
0.40781107
0.38257555
0.34135813
0.27673193
0.1879287
0.058015812
0.11439894
0.12460234
0.4297137
0.42330729
0.40825418
0.38331653
0.34252327
0.27888366
0.19166147
0.082975813
0.11726532
0.13222295
0.43019365
0.42396193
0.40922442
0.3846207
0.34463038
0.28212975
0.19743946
0.10143506
0.12160377
0.13986013
0.43095002
0.42496968
0.41061427
0.38654577
0.34758287
0.28670562
0.20474709
0.11568456
0.12519438
0.14718572
0.43193889
0.42627377
0.41226204
0.38890934
0.35092759
0.2917536
0.21199822
0.126884
0.12885652
0.15382514
0.4331671
0.42779989
0.41417934
0.39162922
0.3547394
0.29740406
0.21970127
0.13777727
0.13391081
0.16142909
0.43456873
0.42947508
0.41635922
0.3946124
0.35900102
0.30360824
0.2281146
0.14880669
0.13945553
0.16977671
0.43606667
0.4312732
0.41878284
0.39777253
0.36364111
0.31035023
0.23728438
0.15989546
0.14435564
0.17715538
0.43752454
0.43309691
0.421365
0.40108646
0.36854579
0.31755093
0.24707541
0.17094576
0.14776509
0.18184639
0.43908091
0.43506832
0.42407168
0.40449873
0.37358538
0.32500003
0.25728049
0.18178067
0.14969163
0.18273006
0.44057316
0.43704762
0.42665844
0.40793392
0.37856737
0.3325018
0.26746195
0.19222271
0.15050697
0.17933736
0.44198401
0.43894493
0.42898544
0.41132525
0.38327171
0.33979906
0.27715623
0.20209162
0.15133313
0.17149259
0.44329465
0.44064094
0.43105215
0.41443207
0.38749935
0.34646002
0.28616742
0.21106942
0.15281889
0.1578684
0.44448256
0.44235574
0.43315352
0.41714391
0.39112932
0.35202696
0.29372061
0.21890248
0.15391027
0.13836672
0.44545968
0.44348781
0.43479809
0.41914233
0.39404918
0.3562208
0.29970893
0.22580023
0.15192382
0.11101846
0.44625626
0.44435505
0.43599423
0.4204634
0.39594442
0.35848144
0.30296752
0.22900592
0.1462827
0.080045199
0.44678238
0.44497135
0.43671371
0.42117727
0.39687864
0.35944515
0.3041816
0.2302418
0.14142539
0.068201746
0.44706702
0.44533829
0.43692568
0.42123881
0.39658375
0.35815498
0.30103272
0.22300767
0.13072758
0.091668921
0.44726645
0.44549568
0.43679966
0.42126957
0.39587394
0.35695607
0.29785277
0.21771948
0.12522296
0.12829647
0.44730767
0.44544622
0.43686239
0.42064626
0.39477487
0.35394691
0.2907579
0.20383851
0.084019314
0.13573835
0.1169289
0.13382078
0.22117497
0.27684991
0.32217563
0.35553659
0.38207188
0.40379232
0.41803479
0.42926519
0.11662362
0.1339986
0.22119444
0.27695138
0.32220715
0.35556054
0.38213816
0.40385694
0.41814109
0.42941094
0.11694611
0.13443217
0.22149981
0.27715766
0.32230596
0.35567498
0.38230743
0.40404942
0.41839105
0.42978324
0.11678229
0.13480115
0.22182137
0.27730961
0.32242571
0.35584747
0.38255157
0.40437141
0.41880994
0.43036325
0.11642273
0.1350972
0.22208352
0.27744107
0.32262139
0.35613776
0.3829026
0.40482213
0.41938615
0.43111219
0.11638999
0.13517675
0.22223292
0.27765328
0.32291712
0.35652276
0.38337351
0.4053868
0.42010102
0.43194449
0.1164776
0.13541721
0.22234844
0.27786057
0.32325801
0.35695865
0.38389124
0.40601515
0.42090009
0.43279579
0.11594766
0.135826
0.22253251
0.27806118
0.32359668
0.3574173
0.38440351
0.40666238
0.42178053
0.4335982
0.11510256
0.13631101
0.2227936
0.27828155
0.32393651
0.35789706
0.38491592
0.40735686
0.42263152
0.43460818
0.11482395
0.13664694
0.22315535
0.27859204
0.32429697
0.35838054
0.38543629
0.40806201
0.42362681
0.43536667
0.11520889
0.13706311
0.22370106
0.27894069
0.32463737
0.35883682
0.38594156
0.40875503
0.42452796
0.43623964
0.11549105
0.1375264
0.22406393
0.27919448
0.3249722
0.35926646
0.38646896
0.40943007
0.42536916
0.43722361
0.11518072
0.1374816
0.22411918
0.27953025
0.32539767
0.35970956
0.38702001
0.41005808
0.42613686
0.4381532
0.11499581
0.13754242
0.22430934
0.2799045
0.32583257
0.36009914
0.38751296
0.41047388
0.42727577
0.43808477
0.1145813
0.13809634
0.22445888
0.28007691
0.32607786
0.36036214
0.38787998
0.41089348
0.42790982
0.4387334
0.11450342
0.13856266
0.22469642
0.28020905
0.32618973
0.36060499
0.38821478
0.41128968
0.42845784
0.43928595
0.11444235
0.13884646
0.22486945
0.28022819
0.3263977
0.36088462
0.38849845
0.41166419
0.42883842
0.43972104
0.11398864
0.13880501
0.22485101
0.2803212
0.32662732
0.36108863
0.38869081
0.41193248
0.42904721
0.44003638
0.11337697
0.13866057
0.2247359
0.28043447
0.3267263
0.36121946
0.38883624
0.4120708
0.42921545
0.4401682
0.11342018
0.13874044
0.22479368
0.28049832
0.32677866
0.36131329
0.38891719
0.41215299
0.42931741
0.44025281
0.15266235
0.1055052
0.14444251
0.17699988
0.17751609
0.1364677
0.11775838
0.15833647
0.18524974
0.17014615
0.24005634
0.1712465
0.15047031
0.17903734
0.17829306
0.13691581
0.12538581
0.16204693
0.18526219
0.16691663
0.25598401
0.24746794
0.18012307
0.18788636
0.18569348
0.14802099
0.14233691
0.17056744
0.18716969
0.16589082
0.17061786
0.26204058
0.21702331
0.19817367
0.18792155
0.15701143
0.15497616
0.17785843
0.1881317
0.16320447
0.082742478
0.21578787
0.21486572
0.19327812
0.17958465
0.15619461
0.15905174
0.18231188
0.18818413
0.15994248
0.090014661
0.16715412
0.19452953
0.17930071
0.17233402
0.15702759
0.16453426
0.18759758
0.18918069
0.15757375
0.13920962
0.1603958
0.17451633
0.16640071
0.17016488
0.16180978
0.17268763
0.19402882
0.19142412
0.15609331
0.14610454
0.17653999
0.17940715
0.16672512
0.17720052
0.1727838
0.18446246
0.20151489
0.19462792
0.15511694
0.13853794
0.17388055
0.19531159
0.18284536
0.1930356
0.18883536
0.19856982
0.20864577
0.1975697
0.15371815
0.12586517
0.15808743
0.19638117
0.20329287
0.20599343
0.20264118
0.20974101
0.21343066
0.19738234
0.15057862
0.086919908
0.14546786
0.1869529
0.20342147
0.20584185
0.20928537
0.21463967
0.21317443
0.19056677
0.144716
0.12966543
0.13326874
0.1666349
0.18782329
0.19537393
0.20723311
0.21152041
0.20302534
0.17942349
0.132785
0.14920211
0.15353716
0.14444908
0.16085026
0.18273471
0.19827813
0.19668225
0.1875219
0.16685415
0.11275241
0.15325713
0.15265952
0.14464309
0.14980021
0.17062958
0.17830009
0.1763511
0.17720216
0.15951423
0.088396281
0.12792221
0.13732798
0.13834366
0.1430772
0.15272959
0.1581109
0.1663689
0.17248353
0.15807982
0.062140892
0.10033328
0.11894843
0.12504962
0.13397256
0.13889322
0.15084464
0.16712628
0.17724286
0.16257722
0.065456101
0.11301235
0.12370387
0.13443138
0.13836547
0.14454054
0.15831525
0.17190793
0.18372812
0.17039798
0.08304835
0.14129426
0.14499705
0.14679576
0.14644199
0.15151223
0.1628106
0.1762509
0.18853778
0.17717938
0.096885834
0.16990899
0.173011
0.17442937
0.1715699
0.1632235
0.16318823
0.17883136
0.19231459
0.18121429
0.10453172
0.14110416
0.16325348
0.18634891
0.19803995
0.18799273
0.17521448
0.18377298
0.19720203
0.18667806
0.11118714
0.40981105
0.39110459
0.36231863
0.31980867
0.24011055
0.099929863
0.12801876
0.14653815
0.18257671
0.20266972
0.37223971
0.34431952
0.30097971
0.23594301
0.12972436
0.09670846
0.15501984
0.16631611
0.14103849
0.22257288
0.33044346
0.29379002
0.24520427
0.1866788
0.13306755
0.11473168
0.16169113
0.18425348
0.13410289
0.11313653
0.3595068
0.32304349
0.27681499
0.22216736
0.16743595
0.14248245
0.1571484
0.14783313
0.13871838
0.087990751
0.36550459
0.32872187
0.28133378
0.22085223
0.16294126
0.13292225
0.13092469
0.12831567
0.1332003
0.088400115
0.34886977
0.31716273
0.27202017
0.21461687
0.15729545
0.1029417
0.060440976
0.099313398
0.090958575
0.10734529
0.32314457
0.29165325
0.24845943
0.19511803
0.1404708
0.077794516
0.068440457
0.033512656
0.09146322
0.11963486
0.30424839
0.27007115
0.22357577
0.16443711
0.098361889
0.10584581
0.13264599
0.12959636
0.12832049
0.11171613
0.29647112
0.26533286
0.22117255
0.16605753
0.086411575
0.12363725
0.16209319
0.15782238
0.13994104
0.10087874
0.27396713
0.24699222
0.21242882
0.16760858
0.098190172
0.10223724
0.16184921
0.16504108
0.15038621
0.060109093
0.24527627
0.18250831
0.1169293
0.092463233
0.14519419
0.17413543
0.18089288
0.16877539
0.15167952
0.11815591
0.24095491
0.16486226
0.12947954
0.15526051
0.16919568
0.18075736
0.18932343
0.18501102
0.16028735
0.10987702
0.26984863
0.18643208
0.088762253
0.083331186
0.10587293
0.14377105
0.19282172
0.19291933
0.13499277
0.072196664
0.29148848
0.21608188
0.13392219
0.042582992
0.091932658
0.15148688
0.20356625
0.19276048
0.10276159
0.12384704
0.29282244
0.21852279
0.13634876
0.10657746
0.11867011
0.14023908
0.20745648
0.19934278
0.10476385
0.098345412
0.30901575
0.25540483
0.18253368
0.093081941
0.10058053
0.11313003
0.20354213
0.22437419
0.1448006
0.097817752
0.32380457
0.27996487
0.21580917
0.12211868
0.062158181
0.092855388
0.18863467
0.24375591
0.17668421
0.12354899
0.31605956
0.27659325
0.22054275
0.14816874
0.087429978
0.062464939
0.1861537
0.26050045
0.19509605
0.14839306
0.30186567
0.26261499
0.20853876
0.14448168
0.10390624
0.066824542
0.19616183
0.27030249
0.19919768
0.1591672
0.29460264
0.25219136
0.19674481
0.13300471
0.099597407
0.049353921
0.20476694
0.27165014
0.19916877
0.10113597
0.51212609
0.51056498
0.50327909
0.49037956
0.46934025
0.43689178
0.38774065
0.31347223
0.20356845
0.068416913
0.51220572
0.51071399
0.50348632
0.49061211
0.46983419
0.43758936
0.38902246
0.31580722
0.20854434
0.079591751
0.51244483
0.51103266
0.50390902
0.49114889
0.4706974
0.43882914
0.39102154
0.31907839
0.21436649
0.092280747
0.5127851
0.51147281
0.50450163
0.49194363
0.47189916
0.44060668
0.3938655
0.32383021
0.22243683
0.10375045
0.51319891
0.51201508
0.50522628
0.49292106
0.47332789
0.44269329
0.39705562
0.32895349
0.23026061
0.11231805
0.51366003
0.5126324
0.50603688
0.49400383
0.47490714
0.44497706
0.4005078
0.33442657
0.2382899
0.12137174
0.51419733
0.51366394
0.50720702
0.49535261
0.47667392
0.44746049
0.40418457
0.34012446
0.24645304
0.13063288
0.51478655
0.51439752
0.50814495
0.49668358
0.47844055
0.45012354
0.40802624
0.34622196
0.25504094
0.14109389
0.51542011
0.51515981
0.50915972
0.49802555
0.4802782
0.45290052
0.41203539
0.35261649
0.2644321
0.1527077
0.5160361
0.51589898
0.51020904
0.49926782
0.48216181
0.45558514
0.41615681
0.35902338
0.27456547
0.16484828
0.51661668
0.51658165
0.51117921
0.50047302
0.48390771
0.45810584
0.42018236
0.36506765
0.28467073
0.1768784
0.51713414
0.51718897
0.51196238
0.50168358
0.48540114
0.46041116
0.42373008
0.37037367
0.29354347
0.18755275
0.51757912
0.51772594
0.51263424
0.50278568
0.48661897
0.46238422
0.42652255
0.37467845
0.30035105
0.19518306
0.51796118
0.51820196
0.51328321
0.5035313
0.48764051
0.46384101
0.42846116
0.37761687
0.30419558
0.19946672
0.51827587
0.51857499
0.5137774
0.50401243
0.48839154
0.46465808
0.42963521
0.37897832
0.305835
0.20085534
0.51852678
0.51885699
0.51408811
0.50437034
0.4887759
0.46500333
0.42997451
0.37898902
0.30535349
0.1980613
0.51872298
0.51906333
0.51429459
0.50460324
0.48890943
0.46507765
0.42975185
0.3782889
0.30354391
0.1935468
0.518821
0.519164
0.51439587
0.5046693
0.48890103
0.4649193
0.42922741
0.37707602
0.30076497
0.18765746
0.5188766
0.51922376
0.51444805
0.50467523
0.4888627
0.46471443
0.42875551
0.37604276
0.29856078
0.18301681
0.51896626
0.51931507
0.51452184
0.50472375
0.48885903
0.46457996
0.42837882
0.37516821
0.29654721
0.17814375
0.21476729
0.27865439
0.32833484
0.36914035
0.40606434
0.43378187
0.4590941
0.47943911
0.4940163
0.50539466
0.21472191
0.27863725
0.32839411
0.36920875
0.40611041
0.43382156
0.45910883
0.4794682
0.49403423
0.50545322
0.21488757
0.27861931
0.32842046
0.36921173
0.40613589
0.43388691
0.45919455
0.47958226
0.49417695
0.50563415
0.21481571
0.27868687
0.32850628
0.36925029
0.4061922
0.43398371
0.45930535
0.47972665
0.49437044
0.5058699
0.21482506
0.27880573
0.3285575
0.36928606
0.40623717
0.43407454
0.45940683
0.47988115
0.49458478
0.50616732
0.21485948
0.27872325
0.32851748
0.36932337
0.40629258
0.43419491
0.45958121
0.48008679
0.49487457
0.50650198
0.21479413
0.27857461
0.32851404
0.36936933
0.40640203
0.43433865
0.45981934
0.48010794
0.49596667
0.50560564
0.21460896
0.27860633
0.32861374
0.36946437
0.40655724
0.43448859
0.46003089
0.48035071
0.49632378
0.50596026
0.21451517
0.27878513
0.32866352
0.36956368
0.40668981
0.43462729
0.46023456
0.4806095
0.49667681
0.50635101
0.21447321
0.2787875
0.3286432
0.36963882
0.40681793
0.43479744
0.46045078
0.48089363
0.49704396
0.50672546
0.21447258
0.27859965
0.32865264
0.36973616
0.40696854
0.43499177
0.46070291
0.48117889
0.49739881
0.50710209
0.21430628
0.27837544
0.32872018
0.36984848
0.40713862
0.43519231
0.46093898
0.4814499
0.49770454
0.50746495
0.21403288
0.27830601
0.32880072
0.36996213
0.40727391
0.43532376
0.46110172
0.48165279
0.49793943
0.50777199
0.21395441
0.27840986
0.32888342
0.37006729
0.40736532
0.43538732
0.46122097
0.48178564
0.49814824
0.50801892
0.2138773
0.27841805
0.32893257
0.37019117
0.40746734
0.43548364
0.46136495
0.48194773
0.49834649
0.50825004
0.21404926
0.27836575
0.3288516
0.37023489
0.40753199
0.43557226
0.46151882
0.48212157
0.49853046
0.50846876
0.21435435
0.2784008
0.32868816
0.37019876
0.40755441
0.43561987
0.46162808
0.48226491
0.4986885
0.50864317
0.21437323
0.27855819
0.32869577
0.37021083
0.40756817
0.43562378
0.46166549
0.48232294
0.49875943
0.50872219
0.21419198
0.27867683
0.32879552
0.37027469
0.40760293
0.43563004
0.46169043
0.48235082
0.49879965
0.50876595
0.21431157
0.27869136
0.32876044
0.37028015
0.40761586
0.43565301
0.46173156
0.48241041
0.49888046
0.50885406
)
;
    }
    front
    {
        type            symmetry;
    }
    back
    {
        type            symmetry;
    }
    defaultFaces
    {
        type            empty;
    }
}


// ************************************************************************* //
